
Predictions were generated on 15-Jul-2023 at 23:11:51 using AeroDyn_driver (v1.02.00a, 12-Apr-2016)
 AeroDyn (v15.04.02a, 10-May-2017)

Case 1: WndSpeed=10 m/s; ShearExp=0 ; RotSpeed=30.653 rpm; Pitch=45 deg; Yaw=0 deg; dT=0.1 s; Tmax=0.1 s

     Time           	RtSpeed   	RtTSR     	RtAeroPwr 	RtAeroCp  	RtAeroCq  	RtAeroCt  
      (s)           	(rpm)     	(-)       	(W)       	(-)       	(-)       	(-)       
         0.0000	  3.065324E+001	  2.026220E+001	 -4.807765E+008	 -6.364796E+001	 -3.141217E+000	 -4.388916E+000
