
Predictions were generated on 11-Jul-2023 at 16:59:28 using AeroDyn_driver (v1.02.00a, 12-Apr-2016)
 AeroDyn (v15.04.02a, 10-May-2017)

Case 1: WndSpeed=18 m/s; ShearExp=0 ; RotSpeed=9.5493 rpm; Pitch=14.897 deg; Yaw=0 deg; dT=0.1 s; Tmax=0.1 s

     Time           	RtSpeed   	RtTSR     	RtAeroPwr 	RtAeroCp  	RtAeroCq  	RtAeroCt  
      (s)           	(rpm)     	(-)       	(W)       	(-)       	(-)       	(-)       
         0.0000	  9.549296E+000	  3.506603E+000	  6.681083E+006	  1.515932E-001	  4.323079E-002	  1.769136E-001
