
Predictions were generated on 15-Jul-2023 at 17:19:48 using AeroDyn_driver (v1.02.00a, 12-Apr-2016)
 AeroDyn (v15.04.02a, 10-May-2017)

Case 1: WndSpeed=10 m/s; ShearExp=0 ; RotSpeed=24.924 rpm; Pitch=45 deg; Yaw=0 deg; dT=0.1 s; Tmax=0.1 s

     Time           	RtSpeed   	RtTSR     	RtAeroPwr 	RtAeroCp  	RtAeroCq  	RtAeroCt  
      (s)           	(rpm)     	(-)       	(W)       	(-)       	(-)       	(-)       
         0.0000	  2.492367E+001	  1.647487E+001	 -2.572592E+008	 -3.405746E+001	 -2.067237E+000	 -2.887233E+000
