
Predictions were generated on 09-Jul-2023 at 01:11:30 using AeroDyn_driver (v1.02.00a, 12-Apr-2016)
 AeroDyn (v15.04.02a, 10-May-2017)

Case 1: WndSpeed=262.75 m/s; ShearExp=0 ; RotSpeed=-15.633 rpm; Pitch=0 deg; Yaw=0 deg; dT=0.1 s; Tmax=0.1 s

     Time           	RtSpeed   	RtTSR     	RtAeroPwr 	RtAeroCp  	RtAeroCq  	RtAeroCt  
      (s)           	(rpm)     	(-)       	(W)       	(-)       	(-)       	(-)       
         0.0000	 -1.563310E+001	 -3.932552E-001	 -2.531246E+008	 -1.846036E-003	  4.694245E-003	  6.899579E-002
