
Predictions were generated on 11-May-2017 at 12:46:12 using AeroDyn_driver (v1.02.00a, 12-Apr-2016)
 AeroDyn (v15.04.02a, 10-May-2017)

Case 2: WndSpeed=11 m/s; ShearExp=0 ; RotSpeed=64.14 rpm; Pitch=0 deg; Yaw=-15 deg; dT=5.00000E-03 s; Tmax=4 s

     Time           	RtSpeed   	RtSkew    	B1Azimuth 	B1N1Phi   	B1N2Phi   	B1N3Phi   	B1N4Phi   	B1N1VIndx 	B1N2VIndx 	B1N3VIndx 	B1N4VIndx 	B1N1VIndy 	B1N2VIndy 	B1N3VIndy 	B1N4VIndy 	B1N1AxInd 	B1N2AxInd 	B1N3AxInd 	B1N4AxInd 	B1N1TnInd 	B1N2TnInd 	B1N3TnInd 	B1N4TnInd 	B1N1Alpha 	B1N2Alpha 	B1N3Alpha 	B1N4Alpha 	B1N1Cl    	B1N2Cl    	B1N3Cl    	B1N4Cl    	B1N1Cd    	B1N2Cd    	B1N3Cd    	B1N4Cd    	B1N1Cm    	B1N2Cm    	B1N3Cm    	B1N4Cm    
      (s)           	(rpm)     	(deg)     	(deg)     	(deg)     	(deg)     	(deg)     	(deg)     	(m/s)     	(m/s)     	(m/s)     	(m/s)     	(m/s)     	(m/s)     	(m/s)     	(m/s)     	(-)       	(-)       	(-)       	(-)       	(-)       	(-)       	(-)       	(-)       	(deg)     	(deg)     	(deg)     	(deg)     	(-)       	(-)       	(-)       	(-)       	(-)       	(-)       	(-)       	(-)       	(-)       	(-)       	(-)       	(-)       
         0.0000	  6.414000E+001	  1.500000E+001	 -1.800000E+002	  3.029077E+001	  1.340983E+001	  1.148761E+001	  9.240590E+000	 -1.186683E+000	 -4.271942E+000	 -3.243197E+000	 -3.099023E+000	  6.931914E-001	  1.018601E+000	  6.591409E-001	  5.043262E-001	  1.123011E-001	  4.042728E-001	  3.069181E-001	  2.932742E-001	  4.511439E-002	  4.012595E-002	  1.863124E-002	  1.110896E-002	  2.569077E+001	  9.559835E+000	  9.037614E+000	  8.190590E+000	  8.557689E-001	  1.429068E+000	  1.167545E+000	  1.014407E+000	  2.998397E-001	  2.239153E-002	  1.906793E-002	  2.868092E-002	  0.000000E+000	  0.000000E+000	  0.000000E+000	  0.000000E+000
         0.0050	  6.414000E+001	  1.500000E+001	 -1.780758E+002	  3.032479E+001	  1.346446E+001	  1.152941E+001	  9.282272E+000	 -1.184424E+000	 -4.255345E+000	 -3.225974E+000	 -3.074943E+000	  6.938706E-001	  1.020120E+000	  6.599470E-001	  5.046407E-001	  1.119814E-001	  4.023217E-001	  3.049998E-001	  2.907205E-001	  4.516332E-002	  4.018833E-002	  1.865487E-002	  1.111628E-002	  2.572480E+001	  9.614461E+000	  9.079411E+000	  8.232273E+000	  8.565292E-001	  1.433917E+000	  1.170749E+000	  1.014827E+000	  3.002781E-001	  2.246922E-002	  1.913355E-002	  2.923043E-002	  0.000000E+000	  0.000000E+000	  0.000000E+000	  0.000000E+000
         0.0100	  6.414000E+001	  1.500000E+001	 -1.761516E+002	  3.036445E+001	  1.352173E+001	  1.157273E+001	  9.325034E+000	 -1.181904E+000	 -4.238188E+000	 -3.208388E+000	 -3.050486E+000	  6.945518E-001	  1.021711E+000	  6.607637E-001	  5.049425E-001	  1.116378E-001	  4.003219E-001	  3.030512E-001	  2.881365E-001	  4.522182E-002	  4.025864E-002	  1.868050E-002	  1.112411E-002	  2.576445E+001	  9.671732E+000	  9.122731E+000	  8.275033E+000	  8.479961E-001	  1.430110E+000	  1.172313E+000	  1.017596E+000	  2.967427E-001	  2.308878E-002	  2.009988E-002	  3.019321E-002	  0.000000E+000	  0.000000E+000	  0.000000E+000	  0.000000E+000
         0.0150	  6.414000E+001	  1.500000E+001	 -1.742274E+002	  3.040972E+001	  1.358158E+001	  1.161755E+001	  9.368827E+000	 -1.179124E+000	 -4.220507E+000	 -3.190451E+000	 -3.025693E+000	  6.952326E-001	  1.023373E+000	  6.615884E-001	  5.052308E-001	  1.112706E-001	  3.982771E-001	  3.010738E-001	  2.855259E-001	  4.528980E-002	  4.033690E-002	  1.870805E-002	  1.113242E-002	  2.580972E+001	  9.731577E+000	  9.167551E+000	  8.318827E+000	  8.633475E-001	  1.445692E+000	  1.179188E+000	  1.022227E+000	  3.046368E-001	  2.678207E-002	  2.166681E-002	  3.120580E-002	  0.000000E+000	  0.000000E+000	  0.000000E+000	  0.000000E+000
         0.0200	  6.414000E+001	  1.500000E+001	 -1.723032E+002	  3.046057E+001	  1.364391E+001	  1.166384E+001	  9.413575E+000	 -1.176087E+000	 -4.202331E+000	 -3.172183E+000	 -3.000609E+000	  6.959110E-001	  1.025106E+000	  6.624193E-001	  5.055053E-001	  1.108801E-001	  3.961909E-001	  2.990697E-001	  2.828939E-001	  4.536713E-002	  4.042306E-002	  1.873749E-002	  1.114122E-002	  2.586057E+001	  9.793914E+000	  9.213840E+000	  8.363577E+000	  8.714393E-001	  1.454084E+000	  1.183130E+000	  1.025409E+000	  3.089446E-001	  2.904737E-002	  2.256791E-002	  3.192703E-002	  0.000000E+000	  0.000000E+000	  0.000000E+000	  0.000000E+000
         0.0250	  6.414000E+001	  1.500000E+001	 -1.703790E+002	  3.051698E+001	  1.370869E+001	  1.171155E+001	  9.459236E+000	 -1.172794E+000	 -4.183690E+000	 -3.153597E+000	 -2.975272E+000	  6.965840E-001	  1.026908E+000	  6.632538E-001	  5.057654E-001	  1.104667E-001	  3.940663E-001	  2.970408E-001	  2.802441E-001	  4.545365E-002	  4.051711E-002	  1.876874E-002	  1.115049E-002	  2.591698E+001	  9.858685E+000	  9.261553E+000	  8.409236E+000	  8.754035E-001	  1.458005E+000	  1.186220E+000	  1.028412E+000	  3.111547E-001	  3.035963E-002	  2.318890E-002	  3.262869E-002	  0.000000E+000	  0.000000E+000	  0.000000E+000	  0.000000E+000
         0.0300	  6.414000E+001	  1.500000E+001	 -1.684548E+002	  3.057893E+001	  1.377585E+001	  1.176067E+001	  9.505752E+000	 -1.169245E+000	 -4.164595E+000	 -3.134710E+000	 -2.949721E+000	  6.972488E-001	  1.028784E+000	  6.640894E-001	  5.060106E-001	  1.100306E-001	  3.919052E-001	  2.949888E-001	  2.775806E-001	  4.554922E-002	  4.061928E-002	  1.880172E-002	  1.116022E-002	  2.597893E+001	  9.925849E+000	  9.310669E+000	  8.455752E+000	  8.792280E-001	  1.461745E+000	  1.189577E+000	  1.031492E+000	  3.132173E-001	  3.147840E-002	  2.375229E-002	  3.339121E-002	  0.000000E+000	  0.000000E+000	  0.000000E+000	  0.000000E+000
         0.0350	  6.414000E+001	  1.500000E+001	 -1.665306E+002	  3.064639E+001	  1.384540E+001	  1.181115E+001	  9.553062E+000	 -1.165441E+000	 -4.145046E+000	 -3.115535E+000	 -2.924001E+000	  6.979017E-001	  1.030743E+000	  6.649232E-001	  5.062405E-001	  1.095720E-001	  3.897077E-001	  2.929154E-001	  2.749079E-001	  4.565362E-002	  4.072989E-002	  1.883637E-002	  1.117039E-002	  2.604639E+001	  9.995399E+000	  9.361150E+000	  8.503061E+000	  8.833931E-001	  1.465868E+000	  1.193250E+000	  1.034573E+000	  3.153869E-001	  3.252423E-002	  2.429768E-002	  3.422689E-002	  0.000000E+000	  0.000000E+000	  0.000000E+000	  0.000000E+000
         0.0400	  6.414000E+001	  1.500000E+001	 -1.646064E+002	  3.071935E+001	  1.391737E+001	  1.186297E+001	  9.601113E+000	 -1.161381E+000	 -4.125015E+000	 -3.096089E+000	 -2.898149E+000	  6.985385E-001	  1.032802E+000	  6.657523E-001	  5.064545E-001	  1.090911E-001	  3.874718E-001	  2.908225E-001	  2.722295E-001	  4.576661E-002	  4.084973E-002	  1.887260E-002	  1.118099E-002	  2.611934E+001	  1.006737E+001	  9.412971E+000	  8.551114E+000	  8.879356E-001	  1.470403E+000	  1.197184E+000	  1.037586E+000	  3.177021E-001	  3.352210E-002	  2.483970E-002	  3.513935E-002	  0.000000E+000	  0.000000E+000	  0.000000E+000	  0.000000E+000
         0.0450	  6.414000E+001	  1.500000E+001	 -1.626822E+002	  3.079777E+001	  1.399189E+001	  1.191609E+001	  9.649844E+000	 -1.157064E+000	 -4.104425E+000	 -3.076389E+000	 -2.872207E+000	  6.991541E-001	  1.034995E+000	  6.665735E-001	  5.066524E-001	  1.085878E-001	  3.851909E-001	  2.887120E-001	  2.695500E-001	  4.588789E-002	  4.098010E-002	  1.891031E-002	  1.119201E-002	  2.619777E+001	  1.014189E+001	  9.466085E+000	  8.599845E+000	  8.928401E-001	  1.475332E+000	  1.201327E+000	  1.040487E+000	  3.201752E-001	  3.448725E-002	  2.538820E-002	  3.612837E-002	  0.000000E+000	  0.000000E+000	  0.000000E+000	  0.000000E+000
         0.0500	  6.414000E+001	  1.500000E+001	 -1.607580E+002	  3.088166E+001	  1.406687E+001	  1.197047E+001	  9.699203E+000	 -1.152488E+000	 -4.084391E+000	 -3.056447E+000	 -2.846210E+000	  6.997433E-001	  1.036934E+000	  6.673840E-001	  5.068334E-001	  1.080621E-001	  3.829696E-001	  2.865852E-001	  2.668726E-001	  4.601713E-002	  4.110568E-002	  1.894942E-002	  1.120343E-002	  2.628166E+001	  1.021687E+001	  9.520474E+000	  8.649203E+000	  8.980885E-001	  1.480805E+000	  1.205639E+000	  1.043251E+000	  3.228167E-001	  3.541151E-002	  2.595153E-002	  3.719148E-002	  0.000000E+000	  0.000000E+000	  0.000000E+000	  0.000000E+000
         0.0550	  6.414000E+001	  1.500000E+001	 -1.588338E+002	  3.097099E+001	  1.414485E+001	  1.202609E+001	  9.749125E+000	 -1.147650E+000	 -4.063547E+000	 -3.036278E+000	 -2.820203E+000	  7.002997E-001	  1.039095E+000	  6.681805E-001	  5.069975E-001	  1.075139E-001	  3.806804E-001	  2.844441E-001	  2.642017E-001	  4.615395E-002	  4.124535E-002	  1.898985E-002	  1.121525E-002	  2.637099E+001	  1.029485E+001	  9.576095E+000	  8.699125E+000	  9.036711E-001	  1.485892E+000	  1.210090E+000	  1.045863E+000	  3.256394E-001	  3.620631E-002	  2.653703E-002	  3.832388E-002	  0.000000E+000	  0.000000E+000	  0.000000E+000	  0.000000E+000
         0.0600	  6.414000E+001	  1.500000E+001	 -1.569096E+002	  3.106575E+001	  1.422480E+001	  1.208291E+001	  9.799564E+000	 -1.142545E+000	 -4.042431E+000	 -3.015899E+000	 -2.794219E+000	  7.008165E-001	  1.041287E+000	  6.689596E-001	  5.071441E-001	  1.069429E-001	  3.783741E-001	  2.822901E-001	  2.615407E-001	  4.629789E-002	  4.139152E-002	  1.903147E-002	  1.122743E-002	  2.646576E+001	  1.037480E+001	  9.632914E+000	  8.749565E+000	  9.095755E-001	  1.491789E+000	  1.214650E+000	  1.048319E+000	  3.286548E-001	  3.706878E-002	  2.715071E-002	  3.952013E-002	  0.000000E+000	  0.000000E+000	  0.000000E+000	  0.000000E+000
         0.0650	  6.414000E+001	  1.500000E+001	 -1.549854E+002	  3.116595E+001	  1.430628E+001	  1.214091E+001	  9.850459E+000	 -1.137167E+000	 -4.021287E+000	 -2.995321E+000	 -2.768298E+000	  7.012853E-001	  1.043416E+000	  6.697183E-001	  5.072730E-001	  1.063487E-001	  3.760737E-001	  2.801247E-001	  2.588933E-001	  4.644844E-002	  4.154051E-002	  1.907420E-002	  1.123998E-002	  2.656595E+001	  1.045628E+001	  9.690907E+000	  8.800459E+000	  9.157888E-001	  1.497982E+000	  1.219298E+000	  1.046622E+000	  3.318741E-001	  3.790531E-002	  2.779862E-002	  4.013930E-002	  0.000000E+000	  0.000000E+000	  0.000000E+000	  0.000000E+000
         0.0700	  6.414000E+001	  1.500000E+001	 -1.530612E+002	  3.127158E+001	  1.439125E+001	  1.220003E+001	  9.901760E+000	 -1.131509E+000	 -3.999056E+000	 -2.974560E+000	 -2.742471E+000	  7.016966E-001	  1.045851E+000	  6.704522E-001	  5.073838E-001	  1.057307E-001	  3.736807E-001	  2.779495E-001	  2.562626E-001	  4.660495E-002	  4.170698E-002	  1.911790E-002	  1.125288E-002	  2.667158E+001	  1.054125E+001	  9.750034E+000	  8.851760E+000	  9.222997E-001	  1.504102E+000	  1.224016E+000	  1.041945E+000	  3.353085E-001	  3.870320E-002	  2.848616E-002	  4.016083E-002	  0.000000E+000	  0.000000E+000	  0.000000E+000	  0.000000E+000
         0.0750	  6.414000E+001	  1.500000E+001	 -1.511370E+002	  3.138264E+001	  1.447750E+001	  1.226026E+001	  9.953407E+000	 -1.125562E+000	 -3.976919E+000	 -2.953630E+000	 -2.716780E+000	  7.020406E-001	  1.048162E+000	  6.711583E-001	  5.074760E-001	  1.050883E-001	  3.713057E-001	  2.757661E-001	  2.536526E-001	  4.676677E-002	  4.187384E-002	  1.916249E-002	  1.126610E-002	  2.678264E+001	  1.062750E+001	  9.810260E+000	  8.903407E+000	  9.290927E-001	  1.511091E+000	  1.228785E+000	  1.039245E+000	  3.389670E-001	  3.958538E-002	  2.921772E-002	  4.038776E-002	  0.000000E+000	  0.000000E+000	  0.000000E+000	  0.000000E+000
         0.0800	  6.414000E+001	  1.500000E+001	 -1.492128E+002	  3.149914E+001	  1.456587E+001	  1.232154E+001	  1.000534E+001	 -1.119315E+000	 -3.954412E+000	 -2.932547E+000	 -2.691255E+000	  7.023053E-001	  1.050497E+000	  6.718326E-001	  5.075495E-001	  1.044205E-001	  3.689057E-001	  2.735763E-001	  2.510662E-001	  4.693306E-002	  4.204700E-002	  1.920781E-002	  1.127964E-002	  2.689914E+001	  1.071587E+001	  9.871541E+000	  8.955345E+000	  9.361596E-001	  1.523641E+000	  1.233590E+000	  1.037767E+000	  3.428620E-001	  4.147476E-002	  2.999796E-002	  4.076728E-002	  0.000000E+000	  0.000000E+000	  0.000000E+000	  0.000000E+000
         0.0850	  6.414000E+001	  1.500000E+001	 -1.472886E+002	  3.162109E+001	  1.465654E+001	  1.238499E+001	  1.005752E+001	 -1.112757E+000	 -3.931450E+000	 -2.910560E+000	 -2.665929E+000	  7.024788E-001	  1.052867E+000	  6.725909E-001	  5.076040E-001	  1.037265E-001	  3.664731E-001	  2.713100E-001	  2.485066E-001	  4.710303E-002	  4.222689E-002	  1.925719E-002	  1.129348E-002	  2.702109E+001	  1.080654E+001	  9.934986E+000	  9.007524E+000	  9.434969E-001	  1.531271E+000	  1.238456E+000	  1.037042E+000	  3.470075E-001	  4.243362E-002	  3.085834E-002	  4.125808E-002	  0.000000E+000	  0.000000E+000	  0.000000E+000	  0.000000E+000
         0.0900	  6.414000E+001	  1.500000E+001	 -1.453644E+002	  3.174847E+001	  1.474980E+001	  1.244765E+001	  1.010988E+001	 -1.105886E+000	 -3.907875E+000	 -2.889638E+000	 -2.640838E+000	  7.025526E-001	  1.055298E+000	  6.731210E-001	  5.076393E-001	  1.030061E-001	  3.639933E-001	  2.691511E-001	  2.459771E-001	  4.727601E-002	  4.241457E-002	  1.930166E-002	  1.130760E-002	  2.714847E+001	  1.089980E+001	  9.997648E+000	  9.059882E+000	  9.510862E-001	  1.539212E+000	  1.243411E+000	  1.036776E+000	  3.514109E-001	  4.345167E-002	  3.175166E-002	  4.182845E-002	  0.000000E+000	  0.000000E+000	  0.000000E+000	  0.000000E+000
         0.0950	  6.414000E+001	  1.500000E+001	 -1.434402E+002	  3.188126E+001	  1.484394E+001	  1.251244E+001	  1.016239E+001	 -1.098695E+000	 -3.884587E+000	 -2.867812E+000	 -2.616006E+000	  7.025172E-001	  1.057466E+000	  6.737286E-001	  5.076551E-001	  1.022589E-001	  3.615505E-001	  2.669162E-001	  2.434798E-001	  4.745134E-002	  4.259699E-002	  1.934997E-002	  1.132199E-002	  2.728126E+001	  1.099394E+001	  1.006244E+001	  9.112387E+000	  9.589111E-001	  1.547603E+000	  1.248099E+000	  1.041876E+000	  3.560799E-001	  4.451624E-002	  3.268677E-002	  4.205188E-002	  0.000000E+000	  0.000000E+000	  0.000000E+000	  0.000000E+000
         0.1000	  6.414000E+001	  1.500000E+001	 -1.415159E+002	  3.201944E+001	  1.494145E+001	  1.257608E+001	  1.021496E+001	 -1.091184E+000	 -3.860275E+000	 -2.847280E+000	 -2.591468E+000	  7.023649E-001	  1.059764E+000	  6.740862E-001	  5.076512E-001	  1.014850E-001	  3.590229E-001	  2.648098E-001	  2.410181E-001	  4.762838E-002	  4.278993E-002	  1.939267E-002	  1.133662E-002	  2.741944E+001	  1.109145E+001	  1.012608E+001	  9.164964E+000	  9.669599E-001	  1.555600E+000	  1.250142E+000	  1.046274E+000	  3.610243E-001	  4.553252E-002	  3.315802E-002	  4.285695E-002	  0.000000E+000	  0.000000E+000	  0.000000E+000	  0.000000E+000
         0.1050	  6.414000E+001	  1.500000E+001	 -1.395918E+002	  3.216299E+001	  1.504182E+001	  1.264173E+001	  1.026758E+001	 -1.083350E+000	 -3.835218E+000	 -2.825896E+000	 -2.567250E+000	  7.020870E-001	  1.062048E+000	  6.745085E-001	  5.076277E-001	  1.006842E-001	  3.564367E-001	  2.626325E-001	  2.385945E-001	  4.780647E-002	  4.298759E-002	  1.943879E-002	  1.135150E-002	  2.756299E+001	  1.119182E+001	  1.019173E+001	  9.217582E+000	  9.752120E-001	  1.564315E+000	  1.249778E+000	  1.050118E+000	  3.662502E-001	  4.670119E-002	  3.318349E-002	  4.379675E-002	  0.000000E+000	  0.000000E+000	  0.000000E+000	  0.000000E+000
         0.1100	  6.414000E+001	  1.500000E+001	 -1.376676E+002	  3.231185E+001	  1.514423E+001	  1.270957E+001	  1.032017E+001	 -1.075194E+000	 -3.809847E+000	 -2.803531E+000	 -2.543380E+000	  7.016754E-001	  1.064140E+000	  6.750000E-001	  5.075842E-001	  9.985658E-002	  3.538321E-001	  2.603724E-001	  2.362115E-001	  4.798490E-002	  4.318273E-002	  1.948844E-002	  1.136659E-002	  2.771185E+001	  1.129423E+001	  1.025957E+001	  9.270171E+000	  9.836555E-001	  1.573418E+000	  1.250570E+000	  1.053480E+000	  3.717675E-001	  4.794005E-002	  3.341043E-002	  4.484695E-002	  0.000000E+000	  0.000000E+000	  0.000000E+000	  0.000000E+000
         0.1150	  6.414000E+001	  1.500000E+001	 -1.357434E+002	  3.246600E+001	  1.525075E+001	  1.277727E+001	  1.037270E+001	 -1.066716E+000	 -3.783091E+000	 -2.781736E+000	 -2.519885E+000	  7.011219E-001	  1.066277E+000	  6.753449E-001	  5.075209E-001	  9.900231E-002	  3.511100E-001	  2.581739E-001	  2.338714E-001	  4.816299E-002	  4.338487E-002	  1.953538E-002	  1.138188E-002	  2.786600E+001	  1.140075E+001	  1.032727E+001	  9.322697E+000	  9.922719E-001	  1.582335E+000	  1.252053E+000	  1.056417E+000	  3.775842E-001	  4.919070E-002	  3.373484E-002	  4.598738E-002	  0.000000E+000	  0.000000E+000	  0.000000E+000	  0.000000E+000
         0.1200	  6.414000E+001	  1.500000E+001	 -1.338192E+002	  3.262538E+001	  1.536001E+001	  1.284574E+001	  1.042510E+001	 -1.057916E+000	 -3.755688E+000	 -2.759892E+000	 -2.496789E+000	  7.004190E-001	  1.068175E+000	  6.756276E-001	  5.074372E-001	  9.812149E-002	  3.483391E-001	  2.559792E-001	  2.315766E-001	  4.834007E-002	  4.358242E-002	  1.958200E-002	  1.139735E-002	  2.802538E+001	  1.151001E+001	  1.039574E+001	  9.375099E+000	  1.001045E+000	  1.592031E+000	  1.253688E+000	  1.058981E+000	  3.837085E-001	  5.060920E-002	  3.410414E-002	  4.720098E-002	  0.000000E+000	  0.000000E+000	  0.000000E+000	  0.000000E+000
         0.1250	  6.414000E+001	  1.500000E+001	 -1.318950E+002	  3.278993E+001	  1.547332E+001	  1.291492E+001	  1.047734E+001	 -1.048799E+000	 -3.726979E+000	 -2.738015E+000	 -2.474114E+000	  6.995594E-001	  1.069909E+000	  6.758438E-001	  5.073336E-001	  9.721458E-002	  3.454585E-001	  2.537902E-001	  2.293289E-001	  4.851541E-002	  4.377834E-002	  1.962814E-002	  1.141299E-002	  2.818993E+001	  1.162332E+001	  1.046492E+001	  9.427338E+000	  1.009962E+000	  1.601693E+000	  1.255627E+000	  1.061218E+000	  3.901516E-001	  5.206943E-002	  3.455885E-002	  4.847352E-002	  0.000000E+000	  0.000000E+000	  0.000000E+000	  0.000000E+000
         0.1300	  6.414000E+001	  1.500000E+001	 -1.299708E+002	  3.295962E+001	  1.559180E+001	  1.298478E+001	  1.052936E+001	 -1.039367E+000	 -3.696425E+000	 -2.716114E+000	 -2.451885E+000	  6.985369E-001	  1.071464E+000	  6.759901E-001	  5.072101E-001	  9.628189E-002	  3.424187E-001	  2.516074E-001	  2.271305E-001	  4.868839E-002	  4.397193E-002	  1.967366E-002	  1.142878E-002	  2.835962E+001	  1.174180E+001	  1.053478E+001	  9.479363E+000	  1.018994E+000	  1.611720E+000	  1.262480E+000	  1.063164E+000	  3.969164E-001	  5.368081E-002	  3.424752E-002	  4.979283E-002	  0.000000E+000	  0.000000E+000	  0.000000E+000	  0.000000E+000
         0.1350	  6.414000E+001	  1.500000E+001	 -1.280466E+002	  3.313435E+001	  1.571731E+001	  1.305527E+001	  1.058112E+001	 -1.029627E+000	 -3.663146E+000	 -2.694207E+000	 -2.430121E+000	  6.973448E-001	  1.072788E+000	  6.760625E-001	  5.070664E-001	  9.532402E-002	  3.391382E-001	  2.494328E-001	  2.249834E-001	  4.885830E-002	  4.416092E-002	  1.971840E-002	  1.144470E-002	  2.853435E+001	  1.186731E+001	  1.060527E+001	  9.531123E+000	  1.028145E+000	  1.622282E+000	  1.268883E+000	  1.064854E+000	  4.040225E-001	  5.552372E-002	  3.499368E-002	  5.114840E-002	  0.000000E+000	  0.000000E+000	  0.000000E+000	  0.000000E+000
         0.1400	  6.414000E+001	  1.500000E+001	 -1.261224E+002	  3.331404E+001	  1.584827E+001	  1.312634E+001	  1.063258E+001	 -1.019584E+000	 -3.628029E+000	 -2.672304E+000	 -2.408842E+000	  6.959782E-001	  1.073450E+000	  6.760581E-001	  5.069029E-001	  9.434162E-002	  3.356998E-001	  2.472670E-001	  2.228890E-001	  4.902452E-002	  4.432735E-002	  1.976223E-002	  1.146074E-002	  2.871404E+001	  1.199827E+001	  1.067634E+001	  9.582578E+000	  1.037371E+000	  1.633908E+000	  1.275013E+000	  1.066314E+000	  4.114646E-001	  5.766267E-002	  3.585376E-002	  5.253150E-002	  0.000000E+000	  0.000000E+000	  0.000000E+000	  0.000000E+000
         0.1450	  6.414000E+001	  1.500000E+001	 -1.241981E+002	  3.349863E+001	  1.599256E+001	  1.319796E+001	  1.068368E+001	 -1.009247E+000	 -3.587285E+000	 -2.650422E+000	 -2.388067E+000	  6.944320E-001	  1.073553E+000	  6.759731E-001	  5.067195E-001	  9.333543E-002	  3.317531E-001	  2.451118E-001	  2.208491E-001	  4.918643E-002	  4.447517E-002	  1.980500E-002	  1.147688E-002	  2.889863E+001	  1.214256E+001	  1.074796E+001	  9.633677E+000	  1.046666E+000	  1.645013E+000	  1.280882E+000	  1.067570E+000	  4.192585E-001	  5.997401E-002	  3.682409E-002	  5.393454E-002	  0.000000E+000	  0.000000E+000	  0.000000E+000	  0.000000E+000
         0.1500	  6.414000E+001	  1.500000E+001	 -1.222740E+002	  3.368801E+001	  1.615041E+001	  1.327006E+001	  1.073437E+001	 -9.986251E-001	 -3.540974E+000	 -2.628572E+000	 -2.367815E+000	  6.927025E-001	  1.072598E+000	  6.758044E-001	  5.065164E-001	  9.230637E-002	  3.273044E-001	  2.429680E-001	  2.188653E-001	  4.934342E-002	  4.458329E-002	  1.984656E-002	  1.149309E-002	  2.908801E+001	  1.230041E+001	  1.082006E+001	  9.684373E+000	  1.056004E+000	  1.658502E+000	  1.286493E+000	  1.063777E+000	  4.274074E-001	  6.307209E-002	  3.790155E-002	  5.451472E-002	  0.000000E+000	  0.000000E+000	  0.000000E+000	  0.000000E+000
         0.1550	  6.414000E+001	  1.500000E+001	 -1.203498E+002	  3.388206E+001	  1.633154E+001	  1.334261E+001	  1.078463E+001	 -9.877306E-001	 -3.484603E+000	 -2.606769E+000	 -2.348098E+000	  6.907865E-001	  1.070263E+000	  6.755496E-001	  5.062939E-001	  9.125553E-002	  3.219393E-001	  2.408371E-001	  2.169386E-001	  4.949492E-002	  4.463779E-002	  1.988678E-002	  1.150938E-002	  2.928206E+001	  1.248153E+001	  1.089261E+001	  9.734630E+000	  1.065371E+000	  1.672663E+000	  1.291854E+000	  1.055177E+000	  4.359220E-001	  6.685528E-002	  3.908372E-002	  5.402461E-002	  0.000000E+000	  0.000000E+000	  0.000000E+000	  0.000000E+000
         0.1600	  6.414000E+001	  1.500000E+001	 -1.184256E+002	  3.408067E+001	  1.654157E+001	  1.341554E+001	  1.083440E+001	 -9.765751E-001	 -3.415795E+000	 -2.585029E+000	 -2.328933E+000	  6.886821E-001	  1.065704E+000	  6.752056E-001	  5.060519E-001	  9.018403E-002	  3.154393E-001	  2.387203E-001	  2.150705E-001	  4.964044E-002	  4.460261E-002	  1.992551E-002	  1.152570E-002	  2.948068E+001	  1.269157E+001	  1.096554E+001	  9.784396E+000	  1.074737E+000	  1.689880E+000	  1.296967E+000	  1.049797E+000	  4.448042E-001	  7.199717E-002	  4.036814E-002	  5.387174E-002	  0.000000E+000	  0.000000E+000	  0.000000E+000	  0.000000E+000
         0.1650	  6.414000E+001	  1.500000E+001	 -1.165014E+002	  3.428372E+001	  1.680528E+001	  1.348881E+001	  1.088363E+001	 -9.651737E-001	 -3.323401E+000	 -2.563366E+000	 -2.310335E+000	  6.863883E-001	  1.057229E+000	  6.747696E-001	  5.057910E-001	  8.909323E-002	  3.067764E-001	  2.366191E-001	  2.132623E-001	  4.977949E-002	  4.440559E-002	  1.996263E-002	  1.154206E-002	  2.968372E+001	  1.295528E+001	  1.103881E+001	  9.833631E+000	  1.084074E+000	  1.708695E+000	  1.301837E+000	  1.046439E+000	  4.540555E-001	  7.885113E-002	  4.175267E-002	  5.396645E-002	  0.000000E+000	  0.000000E+000	  0.000000E+000	  0.000000E+000
         0.1700	  6.414000E+001	  1.500000E+001	 -1.145772E+002	  3.449083E+001	  1.716974E+001	  1.356236E+001	  1.093229E+001	 -9.536339E-001	 -3.186617E+000	 -2.541794E+000	 -2.292316E+000	  6.838908E-001	  1.040447E+000	  6.742400E-001	  5.055113E-001	  8.799300E-002	  2.940332E-001	  2.345345E-001	  2.115149E-001	  4.991062E-002	  4.385963E-002	  1.999799E-002	  1.155843E-002	  2.989083E+001	  1.331974E+001	  1.111236E+001	  9.882289E+000	  1.093427E+000	  1.732685E+000	  1.306463E+000	  1.044348E+000	  4.637159E-001	  8.948183E-002	  4.323539E-002	  5.423842E-002	  0.000000E+000	  0.000000E+000	  0.000000E+000	  0.000000E+000
         0.1750	  6.414000E+001	  1.500000E+001	 -1.126530E+002	  3.470245E+001	  1.910567E+001	  1.363614E+001	  1.098034E+001	 -9.417340E-001	 -2.352536E+000	 -2.520330E+000	 -2.274884E+000	  6.812277E-001	  8.725493E-001	  6.736150E-001	  5.052129E-001	  8.686290E-002	  2.169913E-001	  2.324682E-001	  2.098289E-001	  5.003616E-002	  3.691830E-002	  2.003150E-002	  1.157480E-002	  3.010245E+001	  1.525567E+001	  1.118614E+001	  9.930342E+000	  1.102456E+000	  1.652873E+000	  1.310849E+000	  1.043048E+000	  4.736196E-001	  1.149333E-001	  4.481462E-002	  5.463456E-002	  0.000000E+000	  0.000000E+000	  0.000000E+000	  0.000000E+000
         0.1800	  6.414000E+001	  1.500000E+001	 -1.107288E+002	  3.491803E+001	  2.032505E+001	  1.371007E+001	  1.102773E+001	 -9.296432E-001	 -1.850226E+000	 -2.498989E+000	 -2.258055E+000	  6.783768E-001	  7.384563E-001	  6.728924E-001	  5.048966E-001	  8.571848E-002	  1.706015E-001	  2.304213E-001	  2.082057E-001	  5.015403E-002	  3.136260E-002	  2.006302E-002	  1.159114E-002	  3.031803E+001	  1.647505E+001	  1.126007E+001	  9.977725E+000	  1.111709E+000	  2.193977E+000	  1.314943E+000	  1.042238E+000	  4.840910E-001	  2.914825E-001	  4.660413E-002	  5.511481E-002	  0.000000E+000	  0.000000E+000	  0.000000E+000	  0.000000E+000
         0.1850	  6.414000E+001	  1.500000E+001	 -1.088046E+002	  3.513738E+001	  2.075726E+001	  1.378411E+001	  1.107441E+001	 -9.173833E-001	 -1.695592E+000	 -2.477788E+000	 -2.241835E+000	  6.753417E-001	  6.941546E-001	  6.720722E-001	  5.045624E-001	  8.456170E-002	  1.562947E-001	  2.283952E-001	  2.066457E-001	  5.026399E-002	  2.959416E-002	  2.009247E-002	  1.160745E-002	  3.053738E+001	  1.690726E+001	  1.133411E+001	  1.002441E+001	  1.120769E+000	  2.299513E+000	  1.318756E+000	  1.047024E+000	  4.949065E-001	  3.236002E-001	  4.846242E-002	  5.518039E-002	  0.000000E+000	  0.000000E+000	  0.000000E+000	  0.000000E+000
         0.1900	  6.414000E+001	  1.500000E+001	 -1.068804E+002	  3.536033E+001	  2.106569E+001	  1.385819E+001	  1.112037E+001	 -9.049748E-001	 -1.595924E+000	 -2.456744E+000	 -2.226232E+000	  6.721267E-001	  6.650780E-001	  6.711525E-001	  5.042109E-001	  8.339436E-002	  1.470660E-001	  2.263916E-001	  2.051496E-001	  5.036587E-002	  2.846498E-002	  2.011971E-002	  1.162369E-002	  3.076033E+001	  1.721569E+001	  1.140819E+001	  1.007037E+001	  1.129621E+000	  2.084630E+000	  1.322307E+000	  1.050980E+000	  5.060711E-001	  2.602554E-001	  5.039284E-002	  5.592772E-002	  0.000000E+000	  0.000000E+000	  0.000000E+000	  0.000000E+000
         0.1950	  6.414000E+001	  1.500000E+001	 -1.049562E+002	  3.558630E+001	  2.132124E+001	  1.393224E+001	  1.116553E+001	 -8.925886E-001	 -1.519969E+000	 -2.435874E+000	 -2.211256E+000	  6.687242E-001	  6.427638E-001	  6.701340E-001	  5.038424E-001	  8.223220E-002	  1.400314E-001	  2.244117E-001	  2.037181E-001	  5.045855E-002	  2.761862E-002	  2.014470E-002	  1.163987E-002	  3.098630E+001	  1.747124E+001	  1.148224E+001	  1.011553E+001	  1.138401E+000	  1.993873E+000	  1.325601E+000	  1.054296E+000	  5.176719E-001	  2.377163E-001	  5.239666E-002	  5.679955E-002	  0.000000E+000	  0.000000E+000	  0.000000E+000	  0.000000E+000
         0.2000	  6.414000E+001	  1.500000E+001	 -1.030320E+002	  3.581572E+001	  2.154876E+001	  1.400620E+001	  1.120988E+001	 -8.799883E-001	 -1.456769E+000	 -2.415195E+000	 -2.196914E+000	  6.651682E-001	  6.241432E-001	  6.690162E-001	  5.034578E-001	  8.105332E-002	  1.341790E-001	  2.224570E-001	  2.023517E-001	  5.054403E-002	  2.692586E-002	  2.016735E-002	  1.165597E-002	  3.121572E+001	  1.769876E+001	  1.155620E+001	  1.015988E+001	  1.146629E+000	  1.983057E+000	  1.328647E+000	  1.057058E+000	  5.294501E-001	  2.428481E-001	  5.447513E-002	  5.776647E-002	  0.000000E+000	  0.000000E+000	  0.000000E+000	  0.000000E+000
         0.2050	  6.414000E+001	  1.500000E+001	 -1.011078E+002	  3.604810E+001	  2.175147E+001	  1.407998E+001	  1.125338E+001	 -8.673068E-001	 -1.404836E+000	 -2.394729E+000	 -2.183207E+000	  6.614550E-001	  6.087068E-001	  6.677999E-001	  5.030569E-001	  7.986988E-002	  1.293707E-001	  2.205295E-001	  2.010506E-001	  5.062152E-002	  2.636627E-002	  2.018758E-002	  1.167195E-002	  3.144810E+001	  1.790147E+001	  1.162998E+001	  1.020338E+001	  1.154926E+000	  1.988190E+000	  1.331448E+000	  1.059338E+000	  5.417848E-001	  2.577654E-001	  5.662820E-002	  5.880390E-002	  0.000000E+000	  0.000000E+000	  0.000000E+000	  0.000000E+000
         0.2100	  6.414000E+001	  1.500000E+001	 -9.918359E+001	  3.628318E+001	  2.194005E+001	  1.415354E+001	  1.129598E+001	 -8.545700E-001	 -1.359433E+000	 -2.374490E+000	 -2.170143E+000	  6.575944E-001	  5.951656E-001	  6.664860E-001	  5.026405E-001	  7.868420E-002	  1.251693E-001	  2.186303E-001	  1.998151E-001	  5.069117E-002	  2.588525E-002	  2.020534E-002	  1.168781E-002	  3.168318E+001	  1.809005E+001	  1.170354E+001	  1.024598E+001	  1.162949E+000	  1.991384E+000	  1.334004E+000	  1.061198E+000	  5.544805E-001	  2.743136E-001	  5.885455E-002	  5.989139E-002	  0.000000E+000	  0.000000E+000	  0.000000E+000	  0.000000E+000
         0.2150	  6.414000E+001	  1.500000E+001	 -9.725941E+001	  3.652071E+001	  2.211750E+001	  1.422678E+001	  1.133764E+001	 -8.418028E-001	 -1.319198E+000	 -2.354499E+000	 -2.157727E+000	  6.535966E-001	  5.831292E-001	  6.650762E-001	  5.022094E-001	  7.749847E-002	  1.214487E-001	  2.167611E-001	  1.986457E-001	  5.075321E-002	  2.546657E-002	  2.022061E-002	  1.170354E-002	  3.192072E+001	  1.826750E+001	  1.177678E+001	  1.028764E+001	  1.156816E+000	  1.992287E+000	  1.336317E+000	  1.062692E+000	  5.587672E-001	  2.922615E-001	  6.115285E-002	  6.101157E-002	  0.000000E+000	  0.000000E+000	  0.000000E+000	  0.000000E+000
         0.2200	  6.414000E+001	  1.500000E+001	 -9.533520E+001	  3.676045E+001	  2.228585E+001	  1.429963E+001	  1.137833E+001	 -8.290334E-001	 -1.283186E+000	 -2.334779E+000	 -2.145960E+000	  6.494734E-001	  5.723271E-001	  6.635723E-001	  5.017640E-001	  7.631518E-002	  1.181214E-001	  2.149239E-001	  1.975425E-001	  5.080796E-002	  2.509898E-002	  2.023334E-002	  1.171911E-002	  3.216045E+001	  1.843585E+001	  1.184963E+001	  1.032833E+001	  1.138865E+000	  1.989946E+000	  1.338386E+000	  1.063865E+000	  5.551503E-001	  3.111698E-001	  6.352046E-002	  6.214991E-002	  0.000000E+000	  0.000000E+000	  0.000000E+000	  0.000000E+000