
Predictions were generated on 11-May-2017 at 12:46:07 using AeroDyn_driver (v1.02.00a, 12-Apr-2016)
 AeroDyn (v15.04.02a, 10-May-2017)

Case 2: WndSpeed=11 m/s; ShearExp=0 ; RotSpeed=64.14 rpm; Pitch=0 deg; Yaw=-15 deg; dT=5.00000E-03 s; Tmax=4 s

     Time           	RtSpeed   	RtSkew    	B1Azimuth 	B1N1Phi   	B1N2Phi   	B1N3Phi   	B1N4Phi   	B1N1VIndx 	B1N2VIndx 	B1N3VIndx 	B1N4VIndx 	B1N1VIndy 	B1N2VIndy 	B1N3VIndy 	B1N4VIndy 	B1N1AxInd 	B1N2AxInd 	B1N3AxInd 	B1N4AxInd 	B1N1TnInd 	B1N2TnInd 	B1N3TnInd 	B1N4TnInd 	B1N1Alpha 	B1N2Alpha 	B1N3Alpha 	B1N4Alpha 	B1N1Cl    	B1N2Cl    	B1N3Cl    	B1N4Cl    	B1N1Cd    	B1N2Cd    	B1N3Cd    	B1N4Cd    	B1N1Cm    	B1N2Cm    	B1N3Cm    	B1N4Cm    	B3N2VRel  	B3N3VRel  	B3N4VRel  
      (s)           	(rpm)     	(deg)     	(deg)     	(deg)     	(deg)     	(deg)     	(deg)     	(m/s)     	(m/s)     	(m/s)     	(m/s)     	(m/s)     	(m/s)     	(m/s)     	(m/s)     	(-)       	(-)       	(-)       	(-)       	(-)       	(-)       	(-)       	(-)       	(deg)     	(deg)     	(deg)     	(deg)     	(-)       	(-)       	(-)       	(-)       	(-)       	(-)       	(-)       	(-)       	(-)       	(-)       	(-)       	(-)       	(m/s)     	(m/s)     	(m/s)     
         0.0000	  6.414000E+001	  1.500000E+001	 -1.800000E+002	  3.029077E+001	  9.240590E+000	  6.548340E+000	  0.000000E+000	 -1.186683E+000	 -3.099023E+000	 -4.717316E+000	 -1.056698E+001	  6.931914E-001	  5.043262E-001	  5.514328E-001	  0.000000E+000	  1.123011E-001	  2.932742E-001	  4.464206E-001	  1.000000E+000	  4.511439E-002	  1.110896E-002	  1.093937E-002	  0.000000E+000	  2.569077E+001	  8.190590E+000	  6.198340E+000	 -3.500062E-001	  8.557689E-001	  1.014407E+000	  9.698824E-001	  2.790487E-001	  2.998397E-001	  2.868092E-002	  6.692775E-003	  5.387876E-003	  0.000000E+000	  0.000000E+000	  0.000000E+000	  0.000000E+000	  4.224381E+001	  4.698466E+001	  4.860917E+001
         0.0050	  6.414000E+001	  1.500000E+001	 -1.780758E+002	  3.032479E+001	  9.282272E+000	  6.600515E+000	  0.000000E+000	 -1.184424E+000	 -3.074943E+000	 -4.680380E+000	 -1.057697E+001	  6.938706E-001	  5.046407E-001	  5.522298E-001	  0.000000E+000	  1.119814E-001	  2.907205E-001	  4.425066E-001	  1.000000E+000	  4.516332E-002	  1.111628E-002	  1.095553E-002	  0.000000E+000	  2.572480E+001	  8.232273E+000	  6.250515E+000	 -3.500062E-001	  8.565292E-001	  1.014827E+000	  9.734265E-001	  2.790487E-001	  3.002781E-001	  2.923043E-002	  6.940074E-003	  5.387876E-003	  0.000000E+000	  0.000000E+000	  0.000000E+000	  0.000000E+000	  4.232165E+001	  4.706245E+001	  4.869276E+001
         0.0100	  6.414000E+001	  1.500000E+001	 -1.761516E+002	  3.036445E+001	  9.325034E+000	  6.653398E+000	  0.000000E+000	 -1.181904E+000	 -3.050486E+000	 -4.643162E+000	 -1.058695E+001	  6.945518E-001	  5.049425E-001	  5.530406E-001	  0.000000E+000	  1.116378E-001	  2.881365E-001	  4.385740E-001	  1.000000E+000	  4.522182E-002	  1.112411E-002	  1.097266E-002	  0.000000E+000	  2.576445E+001	  8.275033E+000	  6.303397E+000	 -3.500062E-001	  8.557166E-001	  1.015189E+000	  9.739614E-001	  2.790483E-001	  3.005446E-001	  2.998582E-002	  7.812724E-003	  5.423149E-003	  0.000000E+000	  0.000000E+000	  0.000000E+000	  0.000000E+000	  4.240112E+001	  4.714195E+001	  4.877787E+001
         0.0150	  6.414000E+001	  1.500000E+001	 -1.742274E+002	  3.040972E+001	  9.368827E+000	  6.706938E+000	  0.000000E+000	 -1.179124E+000	 -3.025693E+000	 -4.605696E+000	 -1.059691E+001	  6.952326E-001	  5.052308E-001	  5.538637E-001	  0.000000E+000	  1.112706E-001	  2.855259E-001	  4.346263E-001	  1.000000E+000	  4.528980E-002	  1.113242E-002	  1.099074E-002	  0.000000E+000	  2.580972E+001	  8.318827E+000	  6.356938E+000	 -3.500062E-001	  8.559769E-001	  1.016297E+000	  9.754408E-001	  2.790476E-001	  3.013491E-001	  3.075528E-002	  8.634903E-003	  5.423147E-003	  0.000000E+000	  0.000000E+000	  0.000000E+000	  0.000000E+000	  4.248211E+001	  4.722309E+001	  4.886438E+001
         0.0200	  6.414000E+001	  1.500000E+001	 -1.723032E+002	  3.046057E+001	  9.413575E+000	  6.761098E+000	  0.000000E+000	 -1.176087E+000	 -3.000609E+000	 -4.568022E+000	 -1.060683E+001	  6.959110E-001	  5.055053E-001	  5.546979E-001	  0.000000E+000	  1.108801E-001	  2.828939E-001	  4.306678E-001	  1.000000E+000	  4.536713E-002	  1.114122E-002	  1.100975E-002	  0.000000E+000	  2.586057E+001	  8.363577E+000	  6.411099E+000	 -3.500062E-001	  8.574036E-001	  1.018080E+000	  9.777865E-001	  2.790467E-001	  3.027101E-001	  3.152704E-002	  9.393401E-003	  5.423145E-003	  0.000000E+000	  0.000000E+000	  0.000000E+000	  0.000000E+000	  4.256455E+001	  4.730576E+001	  4.895222E+001
         0.0250	  6.414000E+001	  1.500000E+001	 -1.703790E+002	  3.051698E+001	  9.459236E+000	  6.815825E+000	  0.000000E+000	 -1.172794E+000	 -2.975272E+000	 -4.530177E+000	 -1.061671E+001	  6.965840E-001	  5.057654E-001	  5.555412E-001	  0.000000E+000	  1.104667E-001	  2.802441E-001	  4.267024E-001	  1.000000E+000	  4.545365E-002	  1.115049E-002	  1.102963E-002	  0.000000E+000	  2.591698E+001	  8.409236E+000	  6.465826E+000	 -3.500062E-001	  8.596832E-001	  1.020388E+000	  9.808267E-001	  2.790459E-001	  3.044612E-001	  3.230825E-002	  1.010023E-002	  5.423136E-003	  0.000000E+000	  0.000000E+000	  0.000000E+000	  0.000000E+000	  4.264834E+001	  4.738988E+001	  4.904127E+001
         0.0300	  6.414000E+001	  1.500000E+001	 -1.684548E+002	  3.057893E+001	  9.505752E+000	  6.871075E+000	  0.000000E+000	 -1.169245E+000	 -2.949721E+000	 -4.492203E+000	 -1.062654E+001	  6.972488E-001	  5.060106E-001	  5.563924E-001	  0.000000E+000	  1.100306E-001	  2.775806E-001	  4.227343E-001	  1.000000E+000	  4.554922E-002	  1.116022E-002	  1.105039E-002	  0.000000E+000	  2.597893E+001	  8.455752E+000	  6.521076E+000	 -3.500062E-001	  8.626009E-001	  1.023070E+000	  9.843810E-001	  2.790449E-001	  3.064856E-001	  3.311500E-002	  1.077839E-002	  5.423131E-003	  0.000000E+000	  0.000000E+000	  0.000000E+000	  0.000000E+000	  4.273338E+001	  4.747555E+001	  4.913144E+001
         0.0350	  6.414000E+001	  1.500000E+001	 -1.665306E+002	  3.064639E+001	  9.553062E+000	  6.926798E+000	  0.000000E+000	 -1.165441E+000	 -2.924001E+000	 -4.454135E+000	 -1.063630E+001	  6.979017E-001	  5.062405E-001	  5.572491E-001	  0.000000E+000	  1.095720E-001	  2.749079E-001	  4.187676E-001	  1.000000E+000	  4.565362E-002	  1.117039E-002	  1.107195E-002	  0.000000E+000	  2.604639E+001	  8.503061E+000	  6.576797E+000	 -3.500062E-001	  8.660188E-001	  1.025990E+000	  9.882832E-001	  2.790436E-001	  3.087177E-001	  3.396422E-002	  1.145259E-002	  5.423115E-003	  0.000000E+000	  0.000000E+000	  0.000000E+000	  0.000000E+000	  4.281958E+001	  4.756201E+001	  4.922263E+001
         0.0400	  6.414000E+001	  1.500000E+001	 -1.646064E+002	  3.071935E+001	  9.601113E+000	  6.982956E+000	  0.000000E+000	 -1.161381E+000	 -2.898149E+000	 -4.416011E+000	 -1.064598E+001	  6.985385E-001	  5.064545E-001	  5.581107E-001	  0.000000E+000	  1.090911E-001	  2.722295E-001	  4.148056E-001	  1.000000E+000	  4.576661E-002	  1.118099E-002	  1.109433E-002	  0.000000E+000	  2.611934E+001	  8.551114E+000	  6.632957E+000	 -3.500062E-001	  8.698534E-001	  1.029032E+000	  9.923933E-001	  2.790418E-001	  3.111196E-001	  3.486955E-002	  1.214595E-002	  5.423110E-003	  0.000000E+000	  0.000000E+000	  0.000000E+000	  0.000000E+000	  4.290685E+001	  4.764958E+001	  4.931472E+001
         0.0450	  6.414000E+001	  1.500000E+001	 -1.626822E+002	  3.079777E+001	  9.649844E+000	  7.039482E+000	  0.000000E+000	 -1.157064E+000	 -2.872207E+000	 -4.377875E+000	 -1.065556E+001	  6.991541E-001	  5.066524E-001	  5.589737E-001	  0.000000E+000	  1.085878E-001	  2.695500E-001	  4.108535E-001	  1.000000E+000	  4.588789E-002	  1.119201E-002	  1.111743E-002	  0.000000E+000	  2.619777E+001	  8.599845E+000	  6.689482E+000	 -3.500062E-001	  8.740508E-001	  1.032106E+000	  9.965969E-001	  2.790410E-001	  3.136728E-001	  3.583942E-002	  1.287713E-002	  5.423093E-003	  0.000000E+000	  0.000000E+000	  0.000000E+000	  0.000000E+000	  4.299507E+001	  4.773878E+001	  4.940763E+001
         0.0500	  6.414000E+001	  1.500000E+001	 -1.607580E+002	  3.088166E+001	  9.699203E+000	  7.096350E+000	  0.000000E+000	 -1.152488E+000	 -2.846210E+000	 -4.339758E+000	 -1.066505E+001	  6.997433E-001	  5.068334E-001	  5.598381E-001	  0.000000E+000	  1.080621E-001	  2.668726E-001	  4.069139E-001	  1.000000E+000	  4.601713E-002	  1.120343E-002	  1.114127E-002	  0.000000E+000	  2.628166E+001	  8.649203E+000	  6.746350E+000	 -3.500062E-001	  8.785794E-001	  1.035143E+000	  1.000803E+000	  2.790399E-001	  3.163716E-001	  3.687793E-002	  1.366144E-002	  5.423073E-003	  0.000000E+000	  0.000000E+000	  0.000000E+000	  0.000000E+000	  4.308416E+001	  4.782861E+001	  4.950125E+001
         0.0550	  6.414000E+001	  1.500000E+001	 -1.588338E+002	  3.097099E+001	  9.749125E+000	  7.153501E+000	  0.000000E+000	 -1.147650E+000	 -2.820203E+000	 -4.301698E+000	 -1.067443E+001	  7.002997E-001	  5.069975E-001	  5.607009E-001	  0.000000E+000	  1.075139E-001	  2.642017E-001	  4.029909E-001	  1.000000E+000	  4.615395E-002	  1.121525E-002	  1.116578E-002	  0.000000E+000	  2.637099E+001	  8.699125E+000	  6.803501E+000	 -3.500062E-001	  8.834202E-001	  1.038097E+000	  1.002494E+000	  2.790377E-001	  3.192182E-001	  3.798509E-002	  1.418947E-002	  5.423061E-003	  0.000000E+000	  0.000000E+000	  0.000000E+000	  0.000000E+000	  4.317402E+001	  4.791927E+001	  4.959547E+001
         0.0600	  6.414000E+001	  1.500000E+001	 -1.569096E+002	  3.106575E+001	  9.799564E+000	  7.210887E+000	  0.000000E+000	 -1.142545E+000	 -2.794219E+000	 -4.263740E+000	 -1.068369E+001	  7.008165E-001	  5.071441E-001	  5.615610E-001	  0.000000E+000	  1.069429E-001	  2.615407E-001	  3.990887E-001	  1.000000E+000	  4.629789E-002	  1.122743E-002	  1.119093E-002	  0.000000E+000	  2.646576E+001	  8.749565E+000	  6.860888E+000	 -3.500062E-001	  8.885571E-001	  1.040933E+000	  1.002904E+000	  2.790366E-001	  3.222192E-001	  3.915839E-002	  1.452132E-002	  5.423037E-003	  0.000000E+000	  0.000000E+000	  0.000000E+000	  0.000000E+000	  4.326454E+001	  4.801066E+001	  4.969018E+001
         0.0650	  6.414000E+001	  1.500000E+001	 -1.549854E+002	  3.116595E+001	  9.850459E+000	  7.268470E+000	  0.000000E+000	 -1.137167E+000	 -2.768298E+000	 -4.225909E+000	 -1.069282E+001	  7.012853E-001	  5.072730E-001	  5.624163E-001	  0.000000E+000	  1.063487E-001	  2.588933E-001	  3.952102E-001	  1.000000E+000	  4.644844E-002	  1.123998E-002	  1.121668E-002	  0.000000E+000	  2.656595E+001	  8.800459E+000	  6.918470E+000	 -3.500062E-001	  8.939832E-001	  1.040136E+000	  1.007969E+000	  2.790352E-001	  3.253848E-001	  3.983811E-002	  1.454888E-002	  5.423012E-003	  0.000000E+000	  0.000000E+000	  0.000000E+000	  0.000000E+000	  4.335560E+001	  4.810264E+001	  4.978526E+001
         0.0700	  6.414000E+001	  1.500000E+001	 -1.530612E+002	  3.127158E+001	  9.901760E+000	  7.326198E+000	  0.000000E+000	 -1.131509E+000	 -2.742471E+000	 -4.188246E+000	 -1.070180E+001	  7.016966E-001	  5.073838E-001	  5.632653E-001	  0.000000E+000	  1.057307E-001	  2.562626E-001	  3.913590E-001	  1.000000E+000	  4.660495E-002	  1.125288E-002	  1.124301E-002	  0.000000E+000	  2.667158E+001	  8.851760E+000	  6.976198E+000	 -3.500062E-001	  8.996896E-001	  1.037150E+000	  1.012581E+000	  2.790341E-001	  3.287268E-001	  4.008454E-002	  1.521374E-002	  5.422984E-003	  0.000000E+000	  0.000000E+000	  0.000000E+000	  0.000000E+000	  4.344713E+001	  4.819516E+001	  4.988064E+001
         0.0750	  6.414000E+001	  1.500000E+001	 -1.511370E+002	  3.138264E+001	  9.953407E+000	  7.384021E+000	  0.000000E+000	 -1.125562E+000	 -2.716780E+000	 -4.150788E+000	 -1.071063E+001	  7.020406E-001	  5.074760E-001	  5.641060E-001	  0.000000E+000	  1.050883E-001	  2.536526E-001	  3.875390E-001	  1.000000E+000	  4.676677E-002	  1.126610E-002	  1.126985E-002	  0.000000E+000	  2.678264E+001	  8.903407E+000	  7.034021E+000	 -3.500062E-001	  9.056699E-001	  1.035549E+000	  1.016819E+000	  2.790332E-001	  3.322573E-001	  4.047619E-002	  1.598083E-002	  5.422954E-003	  0.000000E+000	  0.000000E+000	  0.000000E+000	  0.000000E+000	  4.353901E+001	  4.828804E+001	  4.997618E+001
         0.0800	  6.414000E+001	  1.500000E+001	 -1.492128E+002	  3.149914E+001	  1.000534E+001	  7.441889E+000	  0.000000E+000	 -1.119315E+000	 -2.691255E+000	 -4.113568E+000	 -1.071930E+001	  7.023053E-001	  5.075495E-001	  5.649369E-001	  0.000000E+000	  1.044205E-001	  2.510662E-001	  3.837534E-001	  1.000000E+000	  4.693306E-002	  1.127964E-002	  1.129718E-002	  0.000000E+000	  2.689914E+001	  8.955345E+000	  7.091889E+000	 -3.500062E-001	  9.119180E-001	  1.034797E+000	  1.020700E+000	  2.790304E-001	  3.359892E-001	  4.097523E-002	  1.684272E-002	  5.422931E-003	  0.000000E+000	  0.000000E+000	  0.000000E+000	  0.000000E+000	  4.363115E+001	  4.838123E+001	  5.007179E+001
         0.0850	  6.414000E+001	  1.500000E+001	 -1.472886E+002	  3.162109E+001	  1.005752E+001	  7.499763E+000	  0.000000E+000	 -1.112757E+000	 -2.665929E+000	 -4.076622E+000	 -1.072780E+001	  7.024788E-001	  5.076040E-001	  5.657569E-001	  0.000000E+000	  1.037265E-001	  2.485066E-001	  3.800053E-001	  1.000000E+000	  4.710303E-002	  1.129348E-002	  1.132498E-002	  0.000000E+000	  2.702109E+001	  9.007524E+000	  7.149763E+000	 -3.500062E-001	  9.184273E-001	  1.034562E+000	  1.024242E+000	  2.790278E-001	  3.399356E-001	  4.155217E-002	  1.779193E-002	  5.422904E-003	  0.000000E+000	  0.000000E+000	  0.000000E+000	  0.000000E+000	  4.372342E+001	  4.847459E+001	  5.016735E+001
         0.0900	  6.414000E+001	  1.500000E+001	 -1.453644E+002	  3.174847E+001	  1.010988E+001	  7.557594E+000	  0.000000E+000	 -1.105886E+000	 -2.640838E+000	 -4.039981E+000	 -1.073612E+001	  7.025526E-001	  5.076393E-001	  5.665643E-001	  0.000000E+000	  1.030061E-001	  2.459771E-001	  3.762981E-001	  1.000000E+000	  4.727601E-002	  1.130760E-002	  1.135318E-002	  0.000000E+000	  2.714847E+001	  9.059882E+000	  7.207594E+000	 -3.500062E-001	  9.251897E-001	  1.034636E+000	  1.027463E+000	  2.790252E-001	  3.441083E-001	  4.218458E-002	  1.882044E-002	  5.422875E-003	  0.000000E+000	  0.000000E+000	  0.000000E+000	  0.000000E+000	  4.381574E+001	  4.856802E+001	  5.026277E+001
         0.0950	  6.414000E+001	  1.500000E+001	 -1.434402E+002	  3.188126E+001	  1.016239E+001	  7.615332E+000	  0.000000E+000	 -1.098695E+000	 -2.616006E+000	 -4.003679E+000	 -1.074424E+001	  7.025172E-001	  5.076551E-001	  5.673571E-001	  0.000000E+000	  1.022589E-001	  2.434798E-001	  3.726348E-001	  1.000000E+000	  4.745134E-002	  1.132199E-002	  1.138176E-002	  0.000000E+000	  2.728126E+001	  9.112387E+000	  7.265332E+000	 -3.500062E-001	  9.321983E-001	  1.039628E+000	  1.030381E+000	  2.790230E-001	  3.485198E-001	  4.254720E-002	  1.991963E-002	  5.422843E-003	  0.000000E+000	  0.000000E+000	  0.000000E+000	  0.000000E+000	  4.390799E+001	  4.866141E+001	  5.035791E+001
         0.1000	  6.414000E+001	  1.500000E+001	 -1.415159E+002	  3.201944E+001	  1.021496E+001	  7.672935E+000	  0.000000E+000	 -1.091184E+000	 -2.591468E+000	 -3.967746E+000	 -1.075217E+001	  7.023649E-001	  5.076512E-001	  5.681348E-001	  0.000000E+000	  1.014850E-001	  2.410181E-001	  3.690182E-001	  1.000000E+000	  4.762838E-002	  1.133662E-002	  1.141069E-002	  0.000000E+000	  2.741944E+001	  9.164964E+000	  7.322935E+000	 -3.500062E-001	  9.394438E-001	  1.043986E+000	  1.033017E+000	  2.790210E-001	  3.531812E-001	  4.335928E-002	  2.108059E-002	  5.422807E-003	  0.000000E+000	  0.000000E+000	  0.000000E+000	  0.000000E+000	  4.400008E+001	  4.875465E+001	  5.045271E+001
         0.1050	  6.414000E+001	  1.500000E+001	 -1.395918E+002	  3.216299E+001	  1.026758E+001	  7.730359E+000	  0.000000E+000	 -1.083350E+000	 -2.567250E+000	 -3.932215E+000	 -1.075989E+001	  7.020870E-001	  5.076277E-001	  5.688965E-001	  0.000000E+000	  1.006842E-001	  2.385945E-001	  3.654513E-001	  1.000000E+000	  4.780647E-002	  1.135150E-002	  1.143995E-002	  0.000000E+000	  2.756299E+001	  9.217582E+000	  7.380359E+000	 -3.500062E-001	  9.469153E-001	  1.047830E+000	  1.035391E+000	  2.790190E-001	  3.581029E-001	  4.429783E-002	  2.229384E-002	  5.422770E-003	  0.000000E+000	  0.000000E+000	  0.000000E+000	  0.000000E+000	  4.409189E+001	  4.884763E+001	  5.054702E+001
         0.1100	  6.414000E+001	  1.500000E+001	 -1.376676E+002	  3.231185E+001	  1.032017E+001	  7.787547E+000	  0.000000E+000	 -1.075194E+000	 -2.543380E+000	 -3.897120E+000	 -1.076739E+001	  7.016754E-001	  5.075842E-001	  5.696404E-001	  0.000000E+000	  9.985658E-002	  2.362115E-001	  3.619373E-001	  1.000000E+000	  4.798490E-002	  1.136659E-002	  1.146948E-002	  0.000000E+000	  2.771185E+001	  9.270171E+000	  7.437546E+000	 -3.500062E-001	  9.546034E-001	  1.051223E+000	  1.032770E+000	  2.790169E-001	  3.632958E-001	  4.534079E-002	  2.287556E-002	  5.422733E-003	  0.000000E+000	  0.000000E+000	  0.000000E+000	  0.000000E+000	  4.418333E+001	  4.894024E+001	  5.064075E+001
         0.1150	  6.414000E+001	  1.500000E+001	 -1.357434E+002	  3.246600E+001	  1.037270E+001	  7.844459E+000	  0.000000E+000	 -1.066716E+000	 -2.519885E+000	 -3.862486E+000	 -1.077466E+001	  7.011219E-001	  5.075209E-001	  5.703663E-001	  0.000000E+000	  9.900231E-002	  2.338714E-001	  3.584787E-001	  1.000000E+000	  4.816299E-002	  1.138188E-002	  1.149928E-002	  0.000000E+000	  2.786600E+001	  9.322697E+000	  7.494459E+000	 -3.500062E-001	  9.624943E-001	  1.054218E+000	  1.026349E+000	  2.790150E-001	  3.687690E-001	  4.647028E-002	  2.271906E-002	  5.422689E-003	  0.000000E+000	  0.000000E+000	  0.000000E+000	  0.000000E+000	  4.427430E+001	  4.903239E+001	  5.073380E+001
         0.1200	  6.414000E+001	  1.500000E+001	 -1.338192E+002	  3.262538E+001	  1.042510E+001	  7.901051E+000	  0.000000E+000	 -1.057916E+000	 -2.496789E+000	 -3.828346E+000	 -1.078170E+001	  7.004190E-001	  5.074372E-001	  5.710734E-001	  0.000000E+000	  9.812149E-002	  2.315766E-001	  3.550781E-001	  1.000000E+000	  4.834007E-002	  1.139735E-002	  1.152931E-002	  0.000000E+000	  2.802538E+001	  9.375099E+000	  7.551050E+000	 -3.500062E-001	  9.705755E-001	  1.056862E+000	  1.023113E+000	  2.790160E-001	  3.745325E-001	  4.767071E-002	  2.286012E-002	  5.422628E-003	  0.000000E+000	  0.000000E+000	  0.000000E+000	  0.000000E+000	  4.436467E+001	  4.912394E+001	  5.082605E+001
         0.1250	  6.414000E+001	  1.500000E+001	 -1.318950E+002	  3.278993E+001	  1.047734E+001	  7.957266E+000	  0.000000E+000	 -1.048799E+000	 -2.474114E+000	 -3.794729E+000	 -1.078850E+001	  6.995594E-001	  5.073336E-001	  5.717612E-001	  0.000000E+000	  9.721458E-002	  2.293289E-001	  3.517384E-001	  1.000000E+000	  4.851541E-002	  1.141299E-002	  1.155955E-002	  0.000000E+000	  2.818993E+001	  9.427338E+000	  7.607266E+000	 -3.500062E-001	  9.788331E-001	  1.059196E+000	  1.028140E+000	  2.790164E-001	  3.805954E-001	  4.892907E-002	  2.238298E-002	  5.422566E-003	  0.000000E+000	  0.000000E+000	  0.000000E+000	  0.000000E+000	  4.445437E+001	  4.921482E+001	  5.091741E+001
         0.1300	  6.414000E+001	  1.500000E+001	 -1.299708E+002	  3.295962E+001	  1.052936E+001	  8.013065E+000	  0.000000E+000	 -1.039367E+000	 -2.451885E+000	 -3.761666E+000	 -1.079505E+001	  6.985369E-001	  5.072101E-001	  5.724294E-001	  0.000000E+000	  9.628189E-002	  2.271305E-001	  3.484623E-001	  1.000000E+000	  4.868839E-002	  1.142878E-002	  1.158999E-002	  0.000000E+000	  2.835962E+001	  9.479363E+000	  7.663065E+000	 -3.500062E-001	  9.872518E-001	  1.061253E+000	  1.032262E+000	  2.790138E-001	  3.869668E-001	  5.023421E-002	  2.322878E-002	  5.422524E-003	  0.000000E+000	  0.000000E+000	  0.000000E+000	  0.000000E+000	  4.454329E+001	  4.930489E+001	  5.100777E+001
         0.1350	  6.414000E+001	  1.500000E+001	 -1.280466E+002	  3.313435E+001	  1.058112E+001	  8.068393E+000	  0.000000E+000	 -1.029627E+000	 -2.430121E+000	 -3.729186E+000	 -1.080133E+001	  6.973448E-001	  5.070664E-001	  5.730776E-001	  0.000000E+000	  9.532402E-002	  2.249834E-001	  3.452523E-001	  1.000000E+000	  4.885830E-002	  1.144470E-002	  1.162059E-002	  0.000000E+000	  2.853435E+001	  9.531123E+000	  7.718392E+000	 -3.500062E-001	  9.958172E-001	  1.063065E+000	  1.035757E+000	  2.790115E-001	  3.936555E-001	  5.157647E-002	  2.419215E-002	  5.422478E-003	  0.000000E+000	  0.000000E+000	  0.000000E+000	  0.000000E+000	  4.463131E+001	  4.939408E+001	  5.109704E+001
         0.1400	  6.414000E+001	  1.500000E+001	 -1.261224E+002	  3.331404E+001	  1.063258E+001	  8.122067E+000	  0.000000E+000	 -1.019584E+000	 -2.408842E+000	 -3.698346E+000	 -1.080736E+001	  6.959782E-001	  5.069029E-001	  5.735832E-001	  0.000000E+000	  9.434162E-002	  2.228890E-001	  3.422061E-001	  1.000000E+000	  4.902452E-002	  1.146074E-002	  1.164886E-002	  0.000000E+000	  2.871404E+001	  9.582578E+000	  7.772068E+000	 -3.500062E-001	  1.004511E+000	  1.064657E+000	  1.038713E+000	  2.790129E-001	  4.006702E-001	  5.294771E-002	  2.522385E-002	  5.422406E-003	  0.000000E+000	  0.000000E+000	  0.000000E+000	  0.000000E+000	  4.471836E+001	  4.948228E+001	  5.118510E+001
         0.1450	  6.414000E+001	  1.500000E+001	 -1.241981E+002	  3.349863E+001	  1.068368E+001	  8.177338E+000	  0.000000E+000	 -1.009247E+000	 -2.388067E+000	 -3.666189E+000	 -1.081312E+001	  6.944320E-001	  5.067195E-001	  5.743041E-001	  0.000000E+000	  9.333543E-002	  2.208491E-001	  3.390502E-001	  1.000000E+000	  4.918643E-002	  1.147688E-002	  1.168204E-002	  0.000000E+000	  2.889863E+001	  9.633677E+000	  7.827337E+000	 -3.500062E-001	  1.013318E+000	  1.066051E+000	  1.041226E+000	  2.790135E-001	  4.080195E-001	  5.434078E-002	  2.636057E-002	  5.422340E-003	  0.000000E+000	  0.000000E+000	  0.000000E+000	  0.000000E+000	  4.480433E+001	  4.956938E+001	  5.127187E+001
         0.1500	  6.414000E+001	  1.500000E+001	 -1.222740E+002	  3.368801E+001	  1.073437E+001	  8.231956E+000	  0.000000E+000	 -9.986251E-001	 -2.367815E+000	 -3.634738E+000	 -1.081859E+001	  6.927025E-001	  5.065164E-001	  5.749985E-001	  0.000000E+000	  9.230637E-002	  2.188653E-001	  3.359714E-001	  1.000000E+000	  4.934342E-002	  1.149309E-002	  1.171522E-002	  0.000000E+000	  2.908801E+001	  9.684373E+000	  7.881956E+000	 -3.500062E-001	  1.022218E+000	  1.062432E+000	  1.043381E+000	  2.790137E-001	  4.157109E-001	  5.491847E-002	  2.754345E-002	  5.422273E-003	  0.000000E+000	  0.000000E+000	  0.000000E+000	  0.000000E+000	  4.488912E+001	  4.965529E+001	  5.135723E+001
         0.1550	  6.414000E+001	  1.500000E+001	 -1.203498E+002	  3.388206E+001	  1.078463E+001	  8.284028E+000	  0.000000E+000	 -9.877306E-001	 -2.348098E+000	 -3.605678E+000	 -1.082379E+001	  6.907865E-001	  5.062939E-001	  5.754805E-001	  0.000000E+000	  9.125553E-002	  2.169386E-001	  3.331253E-001	  1.000000E+000	  4.949492E-002	  1.150938E-002	  1.174459E-002	  0.000000E+000	  2.928206E+001	  9.734630E+000	  7.934028E+000	 -3.500062E-001	  1.031195E+000	  1.054120E+000	  1.045217E+000	  2.790136E-001	  4.237520E-001	  5.445379E-002	  2.872413E-002	  5.422207E-003	  0.000000E+000	  0.000000E+000	  0.000000E+000	  0.000000E+000	  4.497264E+001	  4.973989E+001	  5.144110E+001
         0.1600	  6.414000E+001	  1.500000E+001	 -1.184256E+002	  3.408067E+001	  1.083440E+001	  8.336242E+000	  0.000000E+000	 -9.765751E-001	 -2.328933E+000	 -3.576564E+000	 -1.082869E+001	  6.886821E-001	  5.060519E-001	  5.760361E-001	  0.000000E+000	  9.018403E-002	  2.150705E-001	  3.302858E-001	  1.000000E+000	  4.964044E-002	  1.152570E-002	  1.177595E-002	  0.000000E+000	  2.948068E+001	  9.784396E+000	  7.986243E+000	 -3.500062E-001	  1.040227E+000	  1.048949E+000	  1.046770E+000	  2.790100E-001	  4.321498E-001	  5.431964E-002	  2.994119E-002	  5.422164E-003	  0.000000E+000	  0.000000E+000	  0.000000E+000	  0.000000E+000	  4.505479E+001	  4.982312E+001	  5.152338E+001
         0.1650	  6.414000E+001	  1.500000E+001	 -1.165014E+002	  3.428372E+001	  1.088363E+001	  8.387666E+000	  0.000000E+000	 -9.651737E-001	 -2.310335E+000	 -3.548223E+000	 -1.083330E+001	  6.863883E-001	  5.057910E-001	  5.765757E-001	  0.000000E+000	  8.909323E-002	  2.132623E-001	  3.275293E-001	  1.000000E+000	  4.977949E-002	  1.154206E-002	  1.180746E-002	  0.000000E+000	  2.968372E+001	  9.833631E+000	  8.037665E+000	 -3.500062E-001	  1.049294E+000	  1.045749E+000	  1.048083E+000	  2.790103E-001	  4.409107E-001	  5.442743E-002	  3.116912E-002	  5.422091E-003	  0.000000E+000	  0.000000E+000	  0.000000E+000	  0.000000E+000	  4.513548E+001	  4.990486E+001	  5.160399E+001
         0.1700	  6.414000E+001	  1.500000E+001	 -1.145772E+002	  3.449083E+001	  1.093229E+001	  8.438217E+000	  0.000000E+000	 -9.536339E-001	 -2.292316E+000	 -3.520703E+000	 -1.083761E+001	  6.838908E-001	  5.055113E-001	  5.770993E-001	  0.000000E+000	  8.799300E-002	  2.115149E-001	  3.248597E-001	  1.000000E+000	  4.991062E-002	  1.155843E-002	  1.183910E-002	  0.000000E+000	  2.989083E+001	  9.882289E+000	  8.088218E+000	 -3.500062E-001	  1.058381E+000	  1.043784E+000	  1.044345E+000	  2.790069E-001	  4.500380E-001	  5.470814E-002	  3.166652E-002	  5.422042E-003	  0.000000E+000	  0.000000E+000	  0.000000E+000	  0.000000E+000	  4.521463E+001	  4.998503E+001	  5.168282E+001
         0.1750	  6.414000E+001	  1.500000E+001	 -1.126530E+002	  3.470245E+001	  1.098034E+001	  8.487858E+000	  0.000000E+000	 -9.417340E-001	 -2.274884E+000	 -3.494028E+000	 -1.084161E+001	  6.812277E-001	  5.052129E-001	  5.776094E-001	  0.000000E+000	  8.686290E-002	  2.098289E-001	  3.222793E-001	  1.000000E+000	  5.003616E-002	  1.157480E-002	  1.187089E-002	  0.000000E+000	  3.010245E+001	  9.930342E+000	  8.137857E+000	 -3.500062E-001	  1.067444E+000	  1.042588E+000	  1.036139E+000	  2.790041E-001	  4.595376E-001	  5.510931E-002	  3.121911E-002	  5.421990E-003	  0.000000E+000	  0.000000E+000	  0.000000E+000	  0.000000E+000	  4.529213E+001	  5.006353E+001	  5.175979E+001
         0.1800	  6.414000E+001	  1.500000E+001	 -1.107288E+002	  3.491803E+001	  1.102773E+001	  8.536506E+000	  0.000000E+000	 -9.296432E-001	 -2.258055E+000	 -3.468240E+000	 -1.084531E+001	  6.783768E-001	  5.048966E-001	  5.781074E-001	  0.000000E+000	  8.571848E-002	  2.082057E-001	  3.197918E-001	  1.000000E+000	  5.015403E-002	  1.159114E-002	  1.190286E-002	  0.000000E+000	  3.031803E+001	  9.977725E+000	  8.186505E+000	 -3.500062E-001	  1.076480E+000	  1.041870E+000	  1.031695E+000	  2.790060E-001	  4.694166E-001	  5.559219E-002	  3.113154E-002	  5.421906E-003	  0.000000E+000	  0.000000E+000	  0.000000E+000	  0.000000E+000	  4.536790E+001	  5.014027E+001	  5.183480E+001
         0.1850	  6.414000E+001	  1.500000E+001	 -1.088046E+002	  3.513738E+001	  1.107441E+001	  8.584114E+000	  0.000000E+000	 -9.173833E-001	 -2.241835E+000	 -3.443366E+000	 -1.084869E+001	  6.753417E-001	  5.045624E-001	  5.785959E-001	  0.000000E+000	  8.456170E-002	  2.066457E-001	  3.173993E-001	  1.000000E+000	  5.026399E-002	  1.160745E-002	  1.193503E-002	  0.000000E+000	  3.053738E+001	  1.002441E+001	  8.234114E+000	 -3.500062E-001	  1.085469E+000	  1.046798E+000	  1.029349E+000	  2.790072E-001	  4.796801E-001	  5.567914E-002	  3.128317E-002	  5.421827E-003	  0.000000E+000	  0.000000E+000	  0.000000E+000	  0.000000E+000	  4.544188E+001	  5.021518E+001	  5.190780E+001
         0.1900	  6.414000E+001	  1.500000E+001	 -1.068804E+002	  3.536033E+001	  1.112037E+001	  8.630636E+000	  0.000000E+000	 -9.049748E-001	 -2.226232E+000	 -3.419422E+000	 -1.085175E+001	  6.721267E-001	  5.042109E-001	  5.790754E-001	  0.000000E+000	  8.339436E-002	  2.051496E-001	  3.151033E-001	  1.000000E+000	  5.036587E-002	  1.162369E-002	  1.196739E-002	  0.000000E+000	  3.076033E+001	  1.007037E+001	  8.280636E+000	 -3.500062E-001	  1.094384E+000	  1.050901E+000	  1.033998E+000	  2.790080E-001	  4.903276E-001	  5.642909E-002	  3.092268E-002	  5.421748E-003	  0.000000E+000	  0.000000E+000	  0.000000E+000	  0.000000E+000	  4.551395E+001	  5.028816E+001	  5.197868E+001
         0.1950	  6.414000E+001	  1.500000E+001	 -1.049562E+002	  3.558630E+001	  1.116553E+001	  8.676044E+000	  0.000000E+000	 -8.925886E-001	 -2.211256E+000	 -3.396417E+000	 -1.085449E+001	  6.687242E-001	  5.038424E-001	  5.795457E-001	  0.000000E+000	  8.223220E-002	  2.037181E-001	  3.129044E-001	  1.000000E+000	  5.045855E-002	  1.163987E-002	  1.199991E-002	  0.000000E+000	  3.098630E+001	  1.011553E+001	  8.326043E+000	 -3.500062E-001	  1.103207E+000	  1.054366E+000	  1.037640E+000	  2.790046E-001	  5.013567E-001	  5.730362E-002	  3.167964E-002	  5.421695E-003	  0.000000E+000	  0.000000E+000	  0.000000E+000	  0.000000E+000	  4.558405E+001	  5.035914E+001	  5.204735E+001
         0.2000	  6.414000E+001	  1.500000E+001	 -1.030320E+002	  3.581572E+001	  1.120988E+001	  8.720294E+000	  0.000000E+000	 -8.799883E-001	 -2.196914E+000	 -3.374362E+000	 -1.085691E+001	  6.651682E-001	  5.034578E-001	  5.800061E-001	  0.000000E+000	  8.105332E-002	  2.023517E-001	  3.108032E-001	  1.000000E+000	  5.054403E-002	  1.165597E-002	  1.203255E-002	  0.000000E+000	  3.121572E+001	  1.015988E+001	  8.370294E+000	 -3.500062E-001	  1.111882E+000	  1.057278E+000	  1.040545E+000	  2.790017E-001	  5.127643E-001	  5.827409E-002	  3.253226E-002	  5.421639E-003	  0.000000E+000	  0.000000E+000	  0.000000E+000	  0.000000E+000	  4.565210E+001	  5.042804E+001	  5.211376E+001