
Predictions were generated on 11-May-2017 at 12:46:12 using AeroDyn_driver (v1.02.00a, 12-Apr-2016)
 AeroDyn (v15.04.02a, 10-May-2017)

Case 1: WndSpeed=11 m/s; ShearExp=0 ; RotSpeed=64.14 rpm; Pitch=0 deg; Yaw=-15 deg; dT=5.00000E-02 s; Tmax=4 s

     Time           	RtSpeed   	RtSkew    	B1Azimuth 	B1N1Phi   	B1N2Phi   	B1N3Phi   	B1N4Phi   	B1N1VIndx 	B1N2VIndx 	B1N3VIndx 	B1N4VIndx 	B1N1VIndy 	B1N2VIndy 	B1N3VIndy 	B1N4VIndy 	B1N1AxInd 	B1N2AxInd 	B1N3AxInd 	B1N4AxInd 	B1N1TnInd 	B1N2TnInd 	B1N3TnInd 	B1N4TnInd 	B1N1Alpha 	B1N2Alpha 	B1N3Alpha 	B1N4Alpha 	B1N1Cl    	B1N2Cl    	B1N3Cl    	B1N4Cl    	B1N1Cd    	B1N2Cd    	B1N3Cd    	B1N4Cd    	B1N1Cm    	B1N2Cm    	B1N3Cm    	B1N4Cm    
      (s)           	(rpm)     	(deg)     	(deg)     	(deg)     	(deg)     	(deg)     	(deg)     	(m/s)     	(m/s)     	(m/s)     	(m/s)     	(m/s)     	(m/s)     	(m/s)     	(m/s)     	(-)       	(-)       	(-)       	(-)       	(-)       	(-)       	(-)       	(-)       	(deg)     	(deg)     	(deg)     	(deg)     	(-)       	(-)       	(-)       	(-)       	(-)       	(-)       	(-)       	(-)       	(-)       	(-)       	(-)       	(-)       
         0.0000	  6.414000E+001	  1.500000E+001	 -1.800000E+002	  3.029077E+001	  1.340983E+001	  1.148761E+001	  9.240590E+000	 -1.186683E+000	 -4.271942E+000	 -3.243197E+000	 -3.099023E+000	  6.931914E-001	  1.018601E+000	  6.591409E-001	  5.043262E-001	  1.123011E-001	  4.042728E-001	  3.069181E-001	  2.932742E-001	  4.511439E-002	  4.012595E-002	  1.863124E-002	  1.110896E-002	  2.569077E+001	  9.559835E+000	  9.037614E+000	  8.190590E+000	  8.557689E-001	  1.429068E+000	  1.167545E+000	  1.014407E+000	  2.998397E-001	  2.239153E-002	  1.906793E-002	  2.868092E-002	  0.000000E+000	  0.000000E+000	  0.000000E+000	  0.000000E+000
         0.0500	  6.414000E+001	  1.500000E+001	 -1.607580E+002	  3.088166E+001	  1.406687E+001	  1.197047E+001	  9.699203E+000	 -1.152488E+000	 -4.084391E+000	 -3.056447E+000	 -2.846210E+000	  6.997433E-001	  1.036934E+000	  6.673840E-001	  5.068334E-001	  1.080621E-001	  3.829696E-001	  2.865852E-001	  2.668726E-001	  4.601713E-002	  4.110568E-002	  1.894942E-002	  1.120343E-002	  2.628166E+001	  1.021687E+001	  9.520474E+000	  8.649203E+000	  8.683779E-001	  1.488449E+000	  1.199920E+000	  1.018657E+000	  3.076499E-001	  2.325407E-002	  2.063924E-002	  3.482334E-002	  0.000000E+000	  0.000000E+000	  0.000000E+000	  0.000000E+000
         0.1000	  6.414000E+001	  1.500000E+001	 -1.415159E+002	  3.201944E+001	  1.494145E+001	  1.257608E+001	  1.021496E+001	 -1.091184E+000	 -3.860275E+000	 -2.847280E+000	 -2.591468E+000	  7.023649E-001	  1.059764E+000	  6.740862E-001	  5.076512E-001	  1.014850E-001	  3.590229E-001	  2.648098E-001	  2.410181E-001	  4.762838E-002	  4.278993E-002	  1.939267E-002	  1.133662E-002	  2.741944E+001	  1.109145E+001	  1.012608E+001	  9.164964E+000	  9.411160E-001	  1.558439E+000	  1.247619E+000	  1.049778E+000	  3.467994E-001	  4.063120E-002	  2.988698E-002	  4.499787E-002	  0.000000E+000	  0.000000E+000	  0.000000E+000	  0.000000E+000
         0.1500	  6.414000E+001	  1.500000E+001	 -1.222740E+002	  3.368801E+001	  1.615042E+001	  1.327006E+001	  1.073437E+001	 -9.986251E-001	 -3.540973E+000	 -2.628572E+000	 -2.367814E+000	  6.927025E-001	  1.072598E+000	  6.758045E-001	  5.065164E-001	  9.230637E-002	  3.273043E-001	  2.429680E-001	  2.188652E-001	  4.934342E-002	  4.458328E-002	  1.984656E-002	  1.149309E-002	  2.908801E+001	  1.230042E+001	  1.082006E+001	  9.684374E+000	  1.040233E+000	  1.656078E+000	  1.261625E+000	  1.034499E+000	  4.069417E-001	  6.012514E-002	  3.831500E-002	  5.215383E-002	  0.000000E+000	  0.000000E+000	  0.000000E+000	  0.000000E+000
         0.2000	  6.414000E+001	  1.500000E+001	 -1.030320E+002	  3.581572E+001	  2.154876E+001	  1.400620E+001	  1.120988E+001	 -8.799883E-001	 -1.456769E+000	 -2.415195E+000	 -2.196914E+000	  6.651682E-001	  6.241432E-001	  6.690162E-001	  5.034578E-001	  8.105332E-002	  1.341790E-001	  2.224570E-001	  2.023517E-001	  5.054403E-002	  2.692586E-002	  2.016735E-002	  1.165597E-002	  3.121572E+001	  1.769876E+001	  1.155620E+001	  1.015988E+001	  1.139944E+000	  1.979379E+000	  1.268834E+000	  1.057111E+000	  5.010748E-001	  2.847954E-001	  4.780692E-002	  6.129572E-002	  0.000000E+000	  0.000000E+000	  0.000000E+000	  0.000000E+000
         0.2500	  6.414000E+001	  1.500000E+001	 -8.378998E+001	  3.822857E+001	  2.316545E+001	  1.472405E+001	  1.160006E+001	 -7.538392E-001	 -1.126219E+000	 -2.223205E+000	 -2.089101E+000	  6.228420E-001	  5.249786E-001	  6.527500E-001	  4.988263E-001	  6.939624E-002	  1.036764E-001	  2.046618E-001	  1.923165E-001	  5.100990E-002	  2.361566E-002	  2.025709E-002	  1.180844E-002	  3.362857E+001	  1.931545E+001	  1.227405E+001	  1.055006E+001	  1.218826E+000	  1.479606E+000	  1.313502E+000	  1.038627E+000	  6.321313E-001	  2.818616E-001	  6.463048E-002	  6.539349E-002	  0.000000E+000	  0.000000E+000	  0.000000E+000	  0.000000E+000
         0.3000	  6.414000E+001	  1.500000E+001	 -6.454797E+001	  4.064108E+001	  2.431020E+001	  1.534249E+001	  1.186890E+001	 -6.447669E-001	 -9.890004E-001	 -2.073010E+000	 -2.046353E+000	  5.780435E-001	  4.830791E-001	  6.301388E-001	  4.932494E-001	  5.950400E-002	  9.127251E-002	  1.913132E-001	  1.888531E-001	  5.117844E-002	  2.266427E-002	  2.012725E-002	  1.193510E-002	  3.604108E+001	  2.046020E+001	  1.289249E+001	  1.081890E+001	  1.150196E+000	  1.034755E+000	  1.264236E+000	  1.049097E+000	  6.884990E-001	  2.633871E-001	  7.636082E-002	  6.962641E-002	  0.000000E+000	  0.000000E+000	  0.000000E+000	  0.000000E+000
         0.3500	  6.414000E+001	  1.500000E+001	 -4.530596E+001	  4.271304E+001	  2.512823E+001	  1.577083E+001	  1.198669E+001	 -5.687694E-001	 -9.292305E-001	 -1.984900E+000	 -2.065952E+000	  5.433341E-001	  4.633352E-001	  6.076329E-001	  4.875163E-001	  5.276874E-002	  8.621125E-002	  1.841531E-001	  1.916729E-001	  5.166823E-002	  2.256240E-002	  1.990353E-002	  1.202295E-002	  3.811304E+001	  2.127823E+001	  1.332083E+001	  1.093669E+001	  1.091523E+000	  8.733956E-001	  1.221099E+000	  1.034458E+000	  7.106273E-001	  2.681471E-001	  8.057210E-002	  6.992264E-002	  0.000000E+000	  0.000000E+000	  0.000000E+000	  0.000000E+000
         0.4000	  6.414000E+001	  1.500000E+001	 -2.606400E+001	  4.414037E+001	  2.558827E+001	  1.592882E+001	  1.193363E+001	 -5.258175E-001	 -9.124585E-001	 -1.974292E+000	 -2.143263E+000	  5.211053E-001	  4.535753E-001	  5.917327E-001	  4.824243E-001	  4.915224E-002	  8.529456E-002	  1.845524E-001	  2.003474E-001	  5.231610E-002	  2.270078E-002	  1.974167E-002	  1.206251E-002	  3.954037E+001	  2.173827E+001	  1.347882E+001	  1.088363E+001	  1.094976E+000	  8.056087E-001	  1.197747E+000	  1.028937E+000	  7.568495E-001	  2.682293E-001	  8.292836E-002	  6.730491E-002	  0.000000E+000	  0.000000E+000	  0.000000E+000	  0.000000E+000
         0.4500	  6.414000E+001	  1.500000E+001	 -6.821989E+000	  4.468412E+001	  2.564266E+001	  1.576464E+001	  1.170523E+001	 -5.128145E-001	 -9.249657E-001	 -2.051076E+000	 -2.272873E+000	  5.100471E-001	  4.484498E-001	  5.864148E-001	  4.786240E-001	  4.836810E-002	  8.724176E-002	  1.934553E-001	  2.143749E-001	  5.262920E-002	  2.275098E-002	  1.974168E-002	  1.204864E-002	  4.008412E+001	  2.179266E+001	  1.331464E+001	  1.065523E+001	  1.091210E+000	  8.256651E-001	  1.188600E+000	  1.016496E+000	  7.791521E-001	  2.649929E-001	  7.887024E-002	  6.371774E-002	  0.000000E+000	  0.000000E+000	  0.000000E+000	  0.000000E+000
         0.5000	  6.414000E+001	  1.500000E+001	  1.242002E+001	  4.422236E+001	  2.527206E+001	  1.527346E+001	  1.131753E+001	 -5.295148E-001	 -9.641943E-001	 -2.217158E+000	 -2.447964E+000	  5.101218E-001	  4.472322E-001	  5.921813E-001	  4.765098E-001	  5.041571E-002	  9.180204E-002	  2.110981E-001	  2.330735E-001	  5.238571E-002	  2.263584E-002	  1.990467E-002	  1.198141E-002	  3.962236E+001	  2.142206E+001	  1.282346E+001	  1.026753E+001	  1.080697E+000	  7.920561E-001	  1.183964E+000	  1.016835E+000	  7.843779E-001	  2.567373E-001	  6.700054E-002	  5.711938E-002	  0.000000E+000	  0.000000E+000	  0.000000E+000	  0.000000E+000
         0.5500	  6.414000E+001	  1.500000E+001	  3.166202E+001	  4.280326E+001	  2.449704E+001	  1.450244E+001	  1.080916E+001	 -5.779756E-001	 -1.038469E+000	 -2.466136E+000	 -2.658396E+000	  5.223145E-001	  4.536211E-001	  6.062293E-001	  4.761842E-001	  5.551709E-002	  9.974950E-002	  2.368832E-001	  2.553506E-001	  5.174030E-002	  2.255158E-002	  2.013516E-002	  1.186666E-002	  3.820326E+001	  2.064704E+001	  1.205244E+001	  9.759163E+000	  1.046203E+000	  7.318144E-001	  1.147312E+000	  1.011931E+000	  6.999832E-001	  2.322294E-001	  5.534044E-002	  4.936495E-002	  0.000000E+000	  0.000000E+000	  0.000000E+000	  0.000000E+000
         0.6000	  6.414000E+001	  1.500000E+001	  5.090400E+001	  4.063502E+001	  2.335171E+001	  1.356935E+001	  1.023844E+001	 -6.629818E-001	 -1.174621E+000	 -2.767337E+000	 -2.888422E+000	  5.489718E-001	  4.770907E-001	  6.226810E-001	  4.775004E-001	  6.414287E-002	  1.136435E-001	  2.677373E-001	  2.794521E-001	  5.119668E-002	  2.300042E-002	  2.025910E-002	  1.171614E-002	  3.603502E+001	  1.950171E+001	  1.111935E+001	  9.188436E+000	  1.009293E+000	  7.054501E-001	  1.176159E+000	  1.007237E+000	  6.258585E-001	  2.092394E-001	  3.529537E-002	  4.110299E-002	  0.000000E+000	  0.000000E+000	  0.000000E+000	  0.000000E+000
         0.6500	  6.414000E+001	  1.500000E+001	  7.014600E+001	  3.804682E+001	  2.178395E+001	  1.263919E+001	  9.675769E+000	 -7.858661E-001	 -1.450562E+000	 -3.066413E+000	 -3.115181E+000	  5.892591E-001	  5.396495E-001	  6.355535E-001	  4.801599E-001	  7.639355E-002	  1.410083E-001	  2.980841E-001	  3.028248E-001	  5.101250E-002	  2.501717E-002	  2.013518E-002	  1.154668E-002	  3.344682E+001	  1.793395E+001	  1.018919E+001	  8.625769E+000	  9.616078E-001	  7.110868E-001	  1.181576E+000	  1.003444E+000	  5.336346E-001	  1.825419E-001	  2.091420E-002	  3.338805E-002	  0.000000E+000	  0.000000E+000	  0.000000E+000	  0.000000E+000
         0.7000	  6.414000E+001	  1.500000E+001	  8.938800E+001	  3.545868E+001	  1.550725E+001	  1.186309E+001	  9.193215E+000	 -9.263323E-001	 -3.748959E+000	 -3.307322E+000	 -3.309407E+000	  6.307267E-001	  9.927369E-001	  6.423802E-001	  4.838129E-001	  9.020314E-002	  3.650611E-001	  3.220560E-001	  3.222590E-001	  5.050753E-002	  4.410660E-002	  1.976503E-002	  1.137828E-002	  3.085868E+001	  1.165725E+001	  9.413092E+000	  8.143216E+000	  8.993028E-001	  7.410635E-001	  1.173087E+000	  1.001131E+000	  4.234459E-001	  4.070173E-002	  1.319894E-002	  2.715664E-002	  0.000000E+000	  0.000000E+000	  0.000000E+000	  0.000000E+000
         0.7500	  6.414000E+001	  1.500000E+001	  1.086300E+002	  3.324186E+001	  1.374957E+001	  1.133120E+001	  8.853338E+000	 -1.051229E+000	 -4.298481E+000	 -3.454697E+000	 -3.439448E+000	  6.604885E-001	  1.018008E+000	  6.448353E-001	  4.881251E-001	  1.022101E-001	  4.179378E-001	  3.358974E-001	  3.344147E-001	  4.918858E-002	  4.341635E-002	  1.928292E-002	  1.123143E-002	  2.864186E+001	  9.899568E+000	  8.881204E+000	  7.803339E+000	  8.456424E-001	  1.101304E+000	  1.155468E+000	  1.001008E+000	  3.370966E-001	 -2.245814E-003	  1.164769E-002	  2.306859E-002	  0.000000E+000	  0.000000E+000	  0.000000E+000	  0.000000E+000
         0.8000	  6.414000E+001	  1.500000E+001	  1.278720E+002	  3.160648E+001	  1.314851E+001	  1.106281E+001	  8.699027E+000	 -1.137486E+000	 -4.423442E+000	 -3.503595E+000	 -3.478745E+000	  6.758215E-001	  1.007895E+000	  6.459502E-001	  4.927858E-001	  1.100928E-001	  4.281276E-001	  3.390992E-001	  3.366942E-001	  4.737300E-002	  4.150131E-002	  1.884389E-002	  1.112410E-002	  2.700648E+001	  9.298512E+000	  8.612806E+000	  7.649027E+000	  8.283843E-001	  1.322438E+000	  1.138961E+000	  1.003635E+000	  2.914710E-001	 -4.558295E-003	  1.375152E-002	  2.146296E-002	  0.000000E+000	  0.000000E+000	  0.000000E+000	  0.000000E+000
         0.8500	  6.414000E+001	  1.500000E+001	  1.471140E+002	  3.060537E+001	  1.295214E+001	  1.104295E+001	  8.746022E+000	 -1.182503E+000	 -4.441017E+000	 -3.463485E+000	 -3.414827E+000	  6.827511E-001	  1.004510E+000	  6.485999E-001	  4.974675E-001	  1.136433E-001	  4.267994E-001	  3.328548E-001	  3.281786E-001	  4.579465E-002	  4.029504E-002	  1.857280E-002	  1.106912E-002	  2.600537E+001	  9.102139E+000	  8.592951E+000	  7.696023E+000	  8.417895E-001	  1.390847E+000	  1.134950E+000	  1.008997E+000	  2.804763E-001	  3.298223E-003	  1.699425E-002	  2.239190E-002	  0.000000E+000	  0.000000E+000	  0.000000E+000	  0.000000E+000
         0.9000	  6.414000E+001	  1.500000E+001	  1.663560E+002	  3.021349E+001	  1.310617E+001	  1.123801E+001	  8.980706E+000	 -1.195000E+000	 -4.370131E+000	 -3.353333E+000	 -3.255485E+000	  6.885518E-001	  1.010102E+000	  6.538983E-001	  5.017700E-001	  1.138445E-001	  4.163307E-001	  3.194631E-001	  3.101413E-001	  4.504799E-002	  3.991750E-002	  1.852512E-002	  1.107224E-002	  2.561349E+001	  9.256174E+000	  8.788013E+000	  7.930706E+000	  8.423390E-001	  1.416210E+000	  1.147676E+000	  1.017928E+000	  2.825393E-001	  1.408830E-002	  2.013765E-002	  2.550581E-002	  0.000000E+000	  0.000000E+000	  0.000000E+000	  0.000000E+000
         0.9500	  6.414000E+001	  1.500000E+001	 -1.744020E+002	  3.040538E+001	  1.357604E+001	  1.161342E+001	  9.364812E+000	 -1.179388E+000	 -4.222132E+000	 -3.192093E+000	 -3.027956E+000	  6.951708E-001	  1.023220E+000	  6.615134E-001	  5.052055E-001	  1.113049E-001	  3.984643E-001	  3.012544E-001	  2.857639E-001	  4.528324E-002	  4.032948E-002	  1.870548E-002	  1.113165E-002	  2.580538E+001	  9.726044E+000	  9.163424E+000	  8.314812E+000	  8.651848E-001	  1.448218E+000	  1.176076E+000	  1.036969E+000	  2.974707E-001	  2.492228E-002	  2.313365E-002	  3.339820E-002	  0.000000E+000	  0.000000E+000	  0.000000E+000	  0.000000E+000
         1.0000	  6.414000E+001	  1.500000E+001	 -1.551600E+002	  3.115664E+001	  1.429879E+001	  1.213560E+001	  9.845824E+000	 -1.137666E+000	 -4.023226E+000	 -2.997197E+000	 -2.770646E+000	  7.012450E-001	  1.043219E+000	  6.696506E-001	  5.072621E-001	  1.064036E-001	  3.762840E-001	  2.803216E-001	  2.591329E-001	  4.643453E-002	  4.152662E-002	  1.907028E-002	  1.123883E-002	  2.655664E+001	  1.044879E+001	  9.685600E+000	  8.795823E+000	  8.906206E-001	  1.502898E+000	  1.220467E+000	  1.028003E+000	  3.211232E-001	  3.512871E-002	  2.739494E-002	  3.935161E-002	  0.000000E+000	  0.000000E+000	  0.000000E+000	  0.000000E+000
         1.0500	  6.414000E+001	  1.500000E+001	 -1.359180E+002	  3.245179E+001	  1.524101E+001	  1.277110E+001	  1.036793E+001	 -1.067499E+000	 -3.785526E+000	 -2.783715E+000	 -2.522002E+000	  7.011781E-001	  1.066097E+000	  6.753163E-001	  5.075274E-001	  9.908090E-002	  3.513572E-001	  2.583732E-001	  2.340820E-001	  4.814686E-002	  4.336686E-002	  1.953114E-002	  1.138049E-002	  2.785179E+001	  1.139102E+001	  1.032110E+001	  9.317934E+000	  9.242936E-001	  1.575671E+000	  1.245079E+000	  1.053535E+000	  3.552663E-001	  4.567727E-002	  3.298856E-002	  4.897310E-002	  0.000000E+000	  0.000000E+000	  0.000000E+000	  0.000000E+000
         1.1000	  6.414000E+001	  1.500000E+001	 -1.166759E+002	  3.426513E+001	  1.677736E+001	  1.348215E+001	  1.087919E+001	 -9.662178E-001	 -3.333565E+000	 -2.565329E+000	 -2.311998E+000	  6.866041E-001	  1.058270E+000	  6.748128E-001	  5.058153E-001	  8.919294E-002	  3.077261E-001	  2.368091E-001	  2.134238E-001	  4.976715E-002	  4.443482E-002	  1.995932E-002	  1.154057E-002	  2.966512E+001	  1.292736E+001	  1.103215E+001	  9.829186E+000	  9.638058E-001	  1.699295E+000	  1.262802E+000	  1.037044E+000	  4.008228E-001	  6.942844E-002	  4.042667E-002	  5.485828E-002	  0.000000E+000	  0.000000E+000	  0.000000E+000	  0.000000E+000
         1.1500	  6.414000E+001	  1.500000E+001	 -9.743396E+001	  3.649907E+001	  2.210179E+001	  1.422015E+001	  1.133390E+001	 -8.429621E-001	 -1.322665E+000	 -2.356303E+000	 -2.158827E+000	  6.539648E-001	  5.841677E-001	  6.652080E-001	  5.022492E-001	  7.760603E-002	  1.217692E-001	  2.169294E-001	  1.987491E-001	  5.074788E-002	  2.550233E-002	  2.021932E-002	  1.170212E-002	  3.189907E+001	  1.825179E+001	  1.177015E+001	  1.028390E+001	  1.121133E+000	  2.007440E+000	  1.313746E+000	  1.057427E+000	  4.703557E-001	  2.755152E-001	  5.494216E-002	  6.311837E-002	  0.000000E+000	  0.000000E+000	  0.000000E+000	  0.000000E+000
         1.2000	  6.414000E+001	  1.500000E+001	 -7.819196E+001	  3.894531E+001	  2.353336E+001	  1.491919E+001	  1.169225E+001	 -7.193545E-001	 -1.074736E+000	 -2.173662E+000	 -2.070015E+000	  6.093981E-001	  5.093318E-001	  6.465690E-001	  4.972682E-001	  6.624943E-002	  9.897851E-002	  2.001848E-001	  1.906394E-001	  5.105722E-002	  2.319838E-002	  2.023775E-002	  1.184859E-002	  3.434531E+001	  1.968336E+001	  1.246919E+001	  1.064225E+001	  1.237856E+000	  1.864288E+000	  1.274803E+000	  1.038545E+000	  5.804249E-001	  4.181614E-001	  6.746322E-002	  6.672113E-002	  0.000000E+000	  0.000000E+000	  0.000000E+000	  0.000000E+000
         1.2500	  6.414000E+001	  1.500000E+001	 -5.894997E+001	  4.129407E+001	  2.458221E+001	  1.549066E+001	  1.191985E+001	 -6.188840E-001	 -9.657661E-001	 -2.040164E+000	 -2.045812E+000	  5.665712E-001	  4.757683E-001	  6.232620E-001	  4.915608E-001	  5.718794E-002	  8.924156E-002	  1.885213E-001	  1.890431E-001	  5.127463E-002	  2.258076E-002	  2.006457E-002	  1.196515E-002	  3.669407E+001	  2.073221E+001	  1.304066E+001	  1.086985E+001	  1.300058E+000	  1.300722E+000	  1.238191E+000	  1.046829E+000	  7.200897E-001	  4.168038E-001	  7.487264E-002	  7.001095E-002	  0.000000E+000	  0.000000E+000	  0.000000E+000	  0.000000E+000
         1.3000	  6.414000E+001	  1.500000E+001	 -3.970797E+001	  4.320681E+001	  2.530132E+001	  1.584762E+001	  1.198942E+001	 -5.530618E-001	 -9.207817E-001	 -1.973302E+000	 -2.082716E+000	  5.356631E-001	  4.598017E-001	  6.020899E-001	  4.859359E-001	  5.141364E-002	  8.559755E-002	  1.834417E-001	  1.936131E-001	  5.186538E-002	  2.259707E-002	  1.984409E-002	  1.203976E-002	  3.860681E+001	  2.145132E+001	  1.339762E+001	  1.093942E+001	  1.320943E+000	  9.147953E-001	  1.256748E+000	  1.033396E+000	  8.418180E-001	  3.107031E-001	  8.549365E-002	  6.965929E-002	  0.000000E+000	  0.000000E+000	  0.000000E+000	  0.000000E+000
         1.3500	  6.414000E+001	  1.500000E+001	 -2.046598E+001	  4.439799E+001	  2.564756E+001	  1.591575E+001	  1.188498E+001	 -5.190035E-001	 -9.133736E-001	 -1.987233E+000	 -2.175838E+000	  5.167587E-001	  4.517190E-001	  5.889958E-001	  4.811623E-001	  4.863667E-002	  8.559375E-002	  1.862269E-001	  2.039014E-001	  5.245813E-002	  2.273283E-002	  1.972264E-002	  1.206409E-002	  3.979799E+001	  2.179756E+001	  1.346575E+001	  1.083498E+001	  1.238859E+000	  8.078079E-001	  1.233294E+000	  1.027279E+000	  8.732985E-001	  2.782045E-001	  9.161624E-002	  6.626923E-002	  0.000000E+000	  0.000000E+000	  0.000000E+000	  0.000000E+000
         1.4000	  6.414000E+001	  1.500000E+001	 -1.223983E+000	  4.465479E+001	  2.557846E+001	  1.565535E+001	  1.160758E+001	 -5.145608E-001	 -9.334879E-001	 -2.089742E+000	 -2.319487E+000	  5.088965E-001	  4.476169E-001	  5.869802E-001	  4.778251E-001	  4.866588E-002	  8.828699E-002	  1.976427E-001	  2.193714E-001	  5.261640E-002	  2.273122E-002	  1.977370E-002	  1.203445E-002	  4.005479E+001	  2.172846E+001	  1.320535E+001	  1.055758E+001	  1.177599E+000	  7.855833E-001	  1.195693E+000	  1.021150E+000	  8.698393E-001	  2.815993E-001	  8.051476E-002	  6.169172E-002	  0.000000E+000	  0.000000E+000	  0.000000E+000	  0.000000E+000
         1.4500	  6.414000E+001	  1.500000E+001	  1.801804E+001	  4.390163E+001	  2.508661E+001	  1.507399E+001	  1.117982E+001	 -5.401840E-001	 -9.814642E-001	 -2.281932E+000	 -2.506112E+000	  5.123456E-001	  4.480168E-001	  5.956348E-001	  4.762332E-001	  5.156923E-002	  9.369651E-002	  2.178470E-001	  2.392486E-001	  5.222264E-002	  2.259209E-002	  1.997175E-002	  1.195252E-002	  3.930163E+001	  2.123661E+001	  1.262399E+001	  1.012982E+001	  1.126070E+000	  7.486219E-001	  1.174452E+000	  1.015647E+000	  8.295466E-001	  2.449445E-001	  6.373933E-002	  5.496307E-002	  0.000000E+000	  0.000000E+000	  0.000000E+000	  0.000000E+000
         1.5000	  6.414000E+001	  1.500000E+001	  3.726006E+001	  4.223752E+001	  2.420118E+001	  1.424096E+001	  1.064657E+001	 -5.985869E-001	 -1.069759E+000	 -2.550384E+000	 -2.724170E+000	  5.284408E-001	  4.580675E-001	  6.110667E-001	  4.764090E-001	  5.762956E-002	  1.029921E-001	  2.455408E-001	  2.622722E-001	  5.154382E-002	  2.259589E-002	  2.019032E-002	  1.182590E-002	  3.763752E+001	  2.035118E+001	  1.179096E+001	  9.596575E+000	  1.053776E+000	  7.278950E-001	  1.176417E+000	  1.010511E+000	  7.129912E-001	  2.265872E-001	  4.709436E-002	  4.696666E-002	  0.000000E+000	  0.000000E+000	  0.000000E+000	  0.000000E+000
         1.5500	  6.414000E+001	  1.500000E+001	  5.650209E+001	  3.990745E+001	  2.294793E+001	  1.328942E+001	  1.007065E+001	 -6.952841E-001	 -1.234114E+000	 -2.858129E+000	 -2.955926E+000	  5.596685E-001	  4.896108E-001	  6.269852E-001	  4.781508E-001	  6.738024E-002	  1.195985E-001	  2.769824E-001	  2.864599E-001	  5.112575E-002	  2.335172E-002	  2.025148E-002	  1.166794E-002	  3.530745E+001	  1.909793E+001	  1.083942E+001	  9.020646E+000	  9.967769E-001	  7.001662E-001	  1.181750E+000	  1.006019E+000	  5.997309E-001	  2.020604E-001	  3.024603E-002	  3.875637E-002	  0.000000E+000	  0.000000E+000	  0.000000E+000	  0.000000E+000
         1.6000	  6.414000E+001	  1.500000E+001	  7.574400E+001	  3.727509E+001	  2.118645E+001	  1.239211E+001	  9.524067E+000	 -8.263394E-001	 -1.592032E+000	 -3.144611E+000	 -3.176455E+000	  6.018987E-001	  5.738924E-001	  6.381541E-001	  4.811357E-001	  8.039456E-002	  1.548888E-001	  3.059392E-001	  3.090372E-001	  5.093458E-002	  2.628074E-002	  2.004872E-002	  1.149665E-002	  3.267509E+001	  1.733645E+001	  9.942113E+000	  8.474068E+000	  9.403881E-001	  6.735922E-001	  1.180841E+000	  1.002588E+000	  4.946565E-001	  1.704786E-001	  1.793209E-002	  3.138685E-002	  0.000000E+000	  0.000000E+000	  0.000000E+000	  0.000000E+000
         1.6500	  6.414000E+001	  1.500000E+001	  9.498603E+001	  3.476274E+001	  1.464483E+001	  1.168092E+001	  9.077268E+000	 -9.656272E-001	 -4.050577E+000	 -3.360737E+000	 -3.355212E+000	  6.409443E-001	  1.016803E+000	  6.433933E-001	  4.850135E-001	  9.401938E-002	  3.943890E-001	  3.272220E-001	  3.266841E-001	  5.020861E-002	  4.462495E-002	  1.962840E-002	  1.133246E-002	  3.016274E+001	  1.079483E+001	  9.230916E+000	  8.027268E+000	  8.811097E-001	  7.805462E-001	  1.168577E+000	  1.000837E+000	  3.942817E-001	  1.821244E-002	  1.219615E-002	  2.572525E-002	  0.000000E+000	  0.000000E+000	  0.000000E+000	  0.000000E+000
         1.7000	  6.414000E+001	  1.500000E+001	  1.142280E+002	  3.270134E+001	  1.352382E+001	  1.122534E+001	  8.788048E+000	 -1.080795E+000	 -4.349659E+000	 -3.479384E+000	 -3.461134E+000	  6.662775E-001	  1.014930E+000	  6.450872E-001	  4.894587E-001	  1.049764E-001	  4.224776E-001	  3.379488E-001	  3.361761E-001	  4.868133E-002	  4.281249E-002	  1.914229E-002	  1.119544E-002	  2.810134E+001	  9.673815E+000	  8.775336E+000	  7.738047E+000	  8.348884E-001	  1.156824E+000	  1.149949E+000	  1.001475E+000	  3.186060E-001	 -4.395276E-003	  1.200065E-002	  2.233818E-002	  0.000000E+000	  0.000000E+000	  0.000000E+000	  0.000000E+000
         1.7500	  6.414000E+001	  1.500000E+001	  1.334700E+002	  3.125036E+001	  1.305472E+001	  1.103283E+001	  8.691996E+000	 -1.154486E+000	 -4.437546E+000	 -3.500279E+000	 -3.470861E+000	  6.783202E-001	  1.006092E+000	  6.464888E-001	  4.941617E-001	  1.115337E-001	  4.287068E-001	  3.381584E-001	  3.353164E-001	  4.685549E-002	  4.107043E-002	  1.874428E-002	  1.110231E-002	  2.665037E+001	  9.204725E+000	  8.582831E+000	  7.641996E+000	  8.312705E-001	  1.345466E+000	  1.136175E+000	  1.004934E+000	  2.859967E-001	 -3.142267E-003	  1.466675E-002	  2.147581E-002	  0.000000E+000	  0.000000E+000	  0.000000E+000	  0.000000E+000
         1.8000	  6.414000E+001	  1.500000E+001	  1.527120E+002	  3.042978E+001	  1.296032E+001	  1.107907E+001	  8.796250E+000	 -1.189202E+000	 -4.430057E+000	 -3.437813E+000	 -3.377424E+000	  6.843747E-001	  1.005055E+000	  6.498527E-001	  4.987788E-001	  1.140115E-001	  4.247198E-001	  3.295910E-001	  3.238014E-001	  4.547836E-002	  4.009272E-002	  1.853469E-002	  1.106398E-002	  2.582978E+001	  9.110324E+000	  8.629068E+000	  7.746250E+000	  8.265876E-001	  1.397539E+000	  1.136908E+000	  1.010973E+000	  2.805091E-001	  5.946726E-003	  1.794025E-002	  2.311748E-002	  0.000000E+000	  0.000000E+000	  0.000000E+000	  0.000000E+000
         1.8500	  6.414000E+001	  1.500000E+001	  1.719541E+002	  3.021017E+001	  1.321258E+001	  1.133015E+001	  9.079205E+000	 -1.193246E+000	 -4.334136E+000	 -3.310873E+000	 -3.194734E+000	  6.904065E-001	  1.013156E+000	  6.559297E-001	  5.028820E-001	  1.133690E-001	  4.117817E-001	  3.145626E-001	  3.035283E-001	  4.501525E-002	  3.995556E-002	  1.855517E-002	  1.108399E-002	  2.561017E+001	  9.362578E+000	  8.880152E+000	  8.029204E+000	  8.352039E-001	  1.412261E+000	  1.154567E+000	  1.026316E+000	  2.858629E-001	  1.729870E-002	  2.102448E-002	  2.853467E-002	  0.000000E+000	  0.000000E+000	  0.000000E+000	  0.000000E+000
         1.9000	  6.414000E+001	  1.500000E+001	 -1.688040E+002	  3.056728E+001	  1.376349E+001	  1.175165E+001	  9.497249E+000	 -1.169908E+000	 -4.168092E+000	 -3.138159E+000	 -2.954372E+000	  6.971290E-001	  1.028439E+000	  6.639379E-001	  5.059672E-001	  1.101115E-001	  3.922999E-001	  2.953627E-001	  2.780648E-001	  4.553122E-002	  4.060014E-002	  1.879562E-002	  1.115842E-002	  2.596728E+001	  9.913487E+000	  9.301654E+000	  8.447248E+000	  8.677421E-001	  1.457824E+000	  1.190451E+000	  1.023574E+000	  3.037895E-001	  2.785507E-002	  2.429371E-002	  3.390341E-002	  0.000000E+000	  0.000000E+000	  0.000000E+000	  0.000000E+000
         1.9500	  6.414000E+001	  1.500000E+001	 -1.495620E+002	  3.147759E+001	  1.454967E+001	  1.231034E+001	  9.995896E+000	 -1.120472E+000	 -3.958527E+000	 -2.936384E+000	 -2.695874E+000	  7.022637E-001	  1.050071E+000	  6.717128E-001	  5.075376E-001	  1.045436E-001	  3.693434E-001	  2.739742E-001	  2.515338E-001	  4.690259E-002	  4.201510E-002	  1.919954E-002	  1.127716E-002	  2.687760E+001	  1.069967E+001	  9.860343E+000	  8.945897E+000	  8.976249E-001	  1.520808E+000	  1.221039E+000	  1.048654E+000	  3.301830E-001	  3.798664E-002	  2.838288E-002	  4.328877E-002	  0.000000E+000	  0.000000E+000	  0.000000E+000	  0.000000E+000
         2.0000	  6.414000E+001	  1.500000E+001	 -1.303199E+002	  3.292845E+001	  1.556986E+001	  1.297205E+001	  1.051994E+001	 -1.041102E+000	 -3.702135E+000	 -2.720090E+000	 -2.455885E+000	  6.987348E-001	  1.071197E+000	  6.759689E-001	  5.072342E-001	  9.645304E-002	  3.429847E-001	  2.520031E-001	  2.275258E-001	  4.865720E-002	  4.393707E-002	  1.966545E-002	  1.142591E-002	  2.832845E+001	  1.171986E+001	  1.052205E+001	  9.469942E+000	  9.343551E-001	  1.598888E+000	  1.248592E+000	  1.034652E+000	  3.674567E-001	  4.921326E-002	  3.427126E-002	  4.946424E-002	  0.000000E+000	  0.000000E+000	  0.000000E+000	  0.000000E+000
         2.0500	  6.414000E+001	  1.500000E+001	 -1.110780E+002	  3.487862E+001	  2.022284E+001	  1.369665E+001	  1.101918E+001	 -9.318505E-001	 -1.888830E+000	 -2.502851E+000	 -2.261063E+000	  6.789081E-001	  7.493478E-001	  6.730308E-001	  5.049552E-001	  8.592712E-002	  1.741714E-001	  2.307911E-001	  2.084955E-001	  5.013323E-002	  3.180327E-002	  2.005745E-002	  1.158818E-002	  3.027862E+001	  1.637284E+001	  1.124665E+001	  9.969180E+000	  9.749008E-001	  1.921999E+000	  1.302187E+000	  1.057809E+000	  4.162422E-001	  1.774141E-001	  4.625642E-002	  5.866374E-002	  0.000000E+000	  0.000000E+000	  0.000000E+000	  0.000000E+000
         2.1000	  6.414000E+001	  1.500000E+001	 -9.183594E+001	  3.720111E+001	  2.257316E+001	  1.442951E+001	  1.144973E+001	 -8.058896E-001	 -1.226374E+000	 -2.300502E+000	 -2.126235E+000	  6.416938E-001	  5.552319E-001	  6.605952E-001	  5.009191E-001	  7.417697E-002	  1.128798E-001	  2.117465E-001	  1.957062E-001	  5.089013E-002	  2.453598E-002	  2.024970E-002	  1.174698E-002	  3.260111E+001	  1.872316E+001	  1.197951E+001	  1.039973E+001	  1.140061E+000	  1.933486E+000	  1.282181E+000	  1.038875E+000	  4.904527E-001	  2.958516E-001	  5.761656E-002	  6.330068E-002	  0.000000E+000	  0.000000E+000	  0.000000E+000	  0.000000E+000
         2.1500	  6.414000E+001	  1.500000E+001	 -7.259389E+001	  3.965399E+001	  2.387179E+001	  1.510177E+001	  1.177332E+001	 -6.869222E-001	 -1.033744E+000	 -2.129375E+000	 -2.056422E+000	  5.961226E-001	  4.968348E-001	  6.399935E-001	  4.956477E-001	  6.330529E-002	  9.526762E-002	  1.962387E-001	  1.895155E-001	  5.109684E-002	  2.290995E-002	  2.020207E-002	  1.188618E-002	  3.505399E+001	  2.002179E+001	  1.265177E+001	  1.072332E+001	  1.253810E+000	  1.704841E+000	  1.253380E+000	  1.052081E+000	  6.056252E-001	  4.478035E-001	  6.722325E-002	  6.869377E-002	  0.000000E+000	  0.000000E+000	  0.000000E+000	  0.000000E+000
         2.2000	  6.414000E+001	  1.500000E+001	 -5.335193E+001	  4.190929E+001	  2.482681E+001	  1.562049E+001	  1.195737E+001	 -5.961781E-001	 -9.476907E-001	 -2.013050E+000	 -2.050448E+000	  5.562261E-001	  4.698790E-001	  6.165742E-001	  4.898796E-001	  5.517234E-002	  8.770251E-002	  1.862945E-001	  1.897554E-001	  5.141288E-002	  2.254838E-002	  1.999795E-002	  1.199163E-002	  3.730929E+001	  2.097681E+001	  1.317049E+001	  1.090736E+001	  1.307373E+000	  1.252586E+000	  1.282107E+000	  1.035848E+000	  7.470307E-001	  4.358548E-001	  8.177954E-002	  6.988162E-002	  0.000000E+000	  0.000000E+000	  0.000000E+000	  0.000000E+000